 Entering Gaussian System, Link 0=/public1/home/sch9811/software-sch9811/g16/g16
 Input=gjf/LnAn/build/pairs//100_99_C28H42N2NdO6P2.gjf
 Output=log/LnAn/build/pairs//100_99_C28H42N2NdO6P2.log
 Initial command:
 /public1/home/sch9811/software-sch9811/g16/l1.exe "/public1/home/sch9811/software-sch9811/gaussian/tmp/Gau-551922.inp" -scrdir="/public1/home/sch9811/software-sch9811/gaussian/tmp/"
 Entering Link 1 = /public1/home/sch9811/software-sch9811/g16/l1.exe PID=    551926.
  
 Copyright (c) 1988-2019, Gaussian, Inc.  All Rights Reserved.
  
 This is part of the Gaussian(R) 16 program.  It is based on
 the Gaussian(R) 09 system (copyright 2009, Gaussian, Inc.),
 the Gaussian(R) 03 system (copyright 2003, Gaussian, Inc.),
 the Gaussian(R) 98 system (copyright 1998, Gaussian, Inc.),
 the Gaussian(R) 94 system (copyright 1995, Gaussian, Inc.),
 the Gaussian 92(TM) system (copyright 1992, Gaussian, Inc.),
 the Gaussian 90(TM) system (copyright 1990, Gaussian, Inc.),
 the Gaussian 88(TM) system (copyright 1988, Gaussian, Inc.),
 the Gaussian 86(TM) system (copyright 1986, Carnegie Mellon
 University), and the Gaussian 82(TM) system (copyright 1983,
 Carnegie Mellon University). Gaussian is a federally registered
 trademark of Gaussian, Inc.
  
 This software contains proprietary and confidential information,
 including trade secrets, belonging to Gaussian, Inc.
  
 This software is provided under written license and may be
 used, copied, transmitted, or stored only in accord with that
 written license.
  
 The following legend is applicable only to US Government
 contracts under FAR:
  
                    RESTRICTED RIGHTS LEGEND
  
 Use, reproduction and disclosure by the US Government is
 subject to restrictions as set forth in subparagraphs (a)
 and (c) of the Commercial Computer Software - Restricted
 Rights clause in FAR 52.227-19.
  
 Gaussian, Inc.
 340 Quinnipiac St., Bldg. 40, Wallingford CT 06492
  
  
 ---------------------------------------------------------------
 Warning -- This program may not be used in any manner that
 competes with the business of Gaussian, Inc. or will provide
 assistance to any competitor of Gaussian, Inc.  The licensee
 of this program is prohibited from giving any competitor of
 Gaussian, Inc. access to this program.  By using this program,
 the user acknowledges that Gaussian, Inc. is engaged in the
 business of creating and licensing software in the field of
 computational chemistry and represents and warrants to the
 licensee that it is not a competitor of Gaussian, Inc. and that
 it will not use this program in any manner prohibited above.
 ---------------------------------------------------------------
  

 Cite this work as:
 Gaussian 16, Revision C.01,
 M. J. Frisch, G. W. Trucks, H. B. Schlegel, G. E. Scuseria, 
 M. A. Robb, J. R. Cheeseman, G. Scalmani, V. Barone, 
 G. A. Petersson, H. Nakatsuji, X. Li, M. Caricato, A. V. Marenich, 
 J. Bloino, B. G. Janesko, R. Gomperts, B. Mennucci, H. P. Hratchian, 
 J. V. Ortiz, A. F. Izmaylov, J. L. Sonnenberg, D. Williams-Young, 
 F. Ding, F. Lipparini, F. Egidi, J. Goings, B. Peng, A. Petrone, 
 T. Henderson, D. Ranasinghe, V. G. Zakrzewski, J. Gao, N. Rega, 
 G. Zheng, W. Liang, M. Hada, M. Ehara, K. Toyota, R. Fukuda, 
 J. Hasegawa, M. Ishida, T. Nakajima, Y. Honda, O. Kitao, H. Nakai, 
 T. Vreven, K. Throssell, J. A. Montgomery, Jr., J. E. Peralta, 
 F. Ogliaro, M. J. Bearpark, J. J. Heyd, E. N. Brothers, K. N. Kudin, 
 V. N. Staroverov, T. A. Keith, R. Kobayashi, J. Normand, 
 K. Raghavachari, A. P. Rendell, J. C. Burant, S. S. Iyengar, 
 J. Tomasi, M. Cossi, J. M. Millam, M. Klene, C. Adamo, R. Cammi, 
 J. W. Ochterski, R. L. Martin, K. Morokuma, O. Farkas, 
 J. B. Foresman, and D. J. Fox, Gaussian, Inc., Wallingford CT, 2019.
 
 ******************************************
 Gaussian 16:  ES64L-G16RevC.01  3-Jul-2019
                13-Dec-2023 
 ******************************************
 %nproc=16
 Will use up to   16 processors via shared memory.
 %Mem=128GB
 -----------------------------------
 #P pbe1pbe/genecp int=fine opt freq
 -----------------------------------
 1/18=20,19=15,26=3,38=1/1,3;
 2/9=110,12=2,17=6,18=5,40=1/2;
 3/5=7,11=2,16=1,17=8,25=1,30=1,71=1,74=-13,75=-4/1,2,3;
 4//1;
 5/5=2,38=5/2;
 6/7=2,8=2,9=2,10=2,28=1/1;
 7//1,2,3,16;
 1/18=20,19=15,26=3/3(2);
 2/9=110/2;
 99//99;
 2/9=110/2;
 3/5=7,6=1,11=2,16=1,17=8,25=1,30=1,71=1,74=-13,75=-4,82=7/1,2,3;
 4/5=5,16=3,69=1/1;
 5/5=2,38=5/2;
 7//1,2,3,16;
 1/18=20,19=15,26=3/3(-5);
 2/9=110/2;
 6/7=2,8=2,9=2,10=2,19=2,28=1/1;
 99/9=1/99;
 Leave Link    1 at Wed Dec 13 14:47:07 2023, MaxMem= 17179869184 cpu:               1.2 elap:               0.1
 (Enter /public1/home/sch9811/software-sch9811/g16/l101.exe)
 -----------------
 C28H44N2NdO6P2+++
 -----------------
 Symbolic Z-matrix:
 Charge =  3 Multiplicity = 1
 C                     2.152    -0.7426    3.6559 
 C                     1.5231   -1.8935    4.459 
 C                     0.0337   -1.6167    4.7389 
 C                    -0.8044   -1.5226    3.4473 
 O                    -0.4144   -0.3498    2.5762 
 P                    -0.1996   -0.5823    0.7628 
 O                    -0.293    -2.3872    0.3675 
 O                     1.3435    0.2       0.131 
 C                     2.313     0.8811    1.0699 
 C                     2.1138    2.4064    1.005 
 C                     0.7111    2.717     1.5557 
 C                     0.6561    2.2285    3.0154 
 C                    -1.6425    0.1557   -0.1841 
 N                    -2.6017   -0.7923   -0.8464 
 C                    -3.3973   -0.3486   -2.0311 
 C                    -3.5054    1.1191   -2.4276 
 C                    -2.7153    2.1583   -1.6049 
 C                    -1.7323    1.6664   -0.5101 
 C                    -4.3248    1.493    -3.686 
 C                    -4.9128    0.3714   -4.5876 
 C                    -4.6687   -1.1128   -4.2267 
 C                    -3.9363   -1.4418   -2.9299 
 N                    -3.6174   -2.8453   -2.5343 
 C                    -3.9621   -3.9971   -3.4326 
 P                    -3.4596   -5.7166   -2.8942 
 O                    -2.4435   -5.442    -1.3766 
 O                    -5.0331   -6.5691   -2.47 
 C                    -6.3451   -5.9018   -2.8073 
 C                    -6.4872   -4.5952   -2.0034 
 C                    -7.8031   -3.8919   -2.3833 
 C                    -8.988    -4.8201   -2.0607 
 O                    -2.4954   -6.5662   -4.2142 
 C                    -2.9886   -7.8416   -4.863 
 C                    -4.4853   -8.1277   -4.6331 
 C                    -5.3449   -7.0247   -5.2807 
 C                    -5.0192   -6.9681   -6.7835 
 C                    -4.7293   -3.7318   -4.749 
 C                    -5.1      -2.2779   -5.1433 
 H                     1.6247   -0.6539    2.6507 
 H                     3.258    -0.9577    3.4818 
 H                     2.0395    0.2356    4.2303 
 H                     2.0724   -1.9908    5.4531 
 H                     1.6265   -2.8669    3.875 
 H                    -0.0686   -0.6454    5.3269 
 H                    -0.3731   -2.4769    5.3669 
 H                    -1.8974   -1.3906    3.7432 
 H                    -0.694    -2.4895    2.8544 
 H                     3.3779    0.6155    0.7618 
 H                     2.1274    0.5441    2.1403 
 H                     2.2141    2.7661   -0.0722 
 H                     2.8894    2.9268    1.6585 
 H                    -0.0693    2.1652    0.9361 
 H                     0.5126    3.8389    1.5175 
 H                     1.4309    2.7935    3.6315 
 H                     0.891     1.1136    3.0509 
 H                    -0.3832    2.4166    3.4445 
 H                    -2.8095    3.2703   -1.8381 
 H                    -1.059     2.4116    0.0282 
 H                    -4.4671    2.5875   -3.9714 
 H                    -5.4989    0.6421   -5.5276 
 H                    -7.2113   -6.6009   -2.5612 
 H                    -6.3611   -5.656    -3.9205 
 H                    -5.6214   -3.8975   -2.2476 
 H                    -6.4829   -4.8299   -0.8878 
 H                    -7.7958   -3.6562   -3.4988 
 H                    -7.9039   -2.9234   -1.7901 
 H                    -8.9912   -5.055    -0.9451 
 H                    -8.8804   -5.788    -2.6532 
 H                    -9.964    -4.3041   -2.3445 
 H                    -2.378    -8.7111   -4.4496 
 H                    -2.8119   -7.7687   -5.9868 
 H                    -4.701    -8.2021   -3.517 
 H                    -4.7448   -9.1222   -5.1266 
 H                    -5.1155   -6.0135   -4.809 
 H                    -6.4496   -7.2646   -5.1344 
 H                    -5.6476   -6.156    -7.279 
 H                    -5.2541   -7.9766   -7.2601 
 H                    -3.9122   -6.7318   -6.9201 
 H                    -5.0186   -4.6013   -5.4275 
 H                    -5.6645   -2.0701   -6.1119 
 Nd                   -2.4756   -3.1948   -0.396 
 
 ITRead=  0  0  0  0  0  0  0  0  0  0  0  0  0  0  0  0  0  0  0  0
 ITRead=  0  0  0  0  0  0  0  0  0  0  0  0  0  0  0  0  0  0  0  0
 ITRead=  0  0  0  0  0  0  0  0  0  0  0  0  0  0  0  0  0  0  0  0
 ITRead=  0  0  0  0  0  0  0  0  0  0  0  0  0  0  0  0  0  0  0  0
 ITRead=  0
 MicOpt= -1 -1 -1 -1 -1 -1 -1 -1 -1 -1 -1 -1 -1 -1 -1 -1 -1 -1 -1 -1
 MicOpt= -1 -1 -1 -1 -1 -1 -1 -1 -1 -1 -1 -1 -1 -1 -1 -1 -1 -1 -1 -1
 MicOpt= -1 -1 -1 -1 -1 -1 -1 -1 -1 -1 -1 -1 -1 -1 -1 -1 -1 -1 -1 -1
 MicOpt= -1 -1 -1 -1 -1 -1 -1 -1 -1 -1 -1 -1 -1 -1 -1 -1 -1 -1 -1 -1
 MicOpt= -1
 NAtoms=     81 NQM=       81 NQMF=       0 NMMI=      0 NMMIF=      0
                NMic=       0 NMicF=      0.
                    Isotopes and Nuclear Properties:
 (Nuclear quadrupole moments (NQMom) in fm**2, nuclear magnetic moments (NMagM)
  in nuclear magnetons)

  Atom         1           2           3           4           5           6           7           8           9          10
 IAtWgt=          12          12          12          12          16          31          16          16          12          12
 AtmWgt=  12.0000000  12.0000000  12.0000000  12.0000000  15.9949146  30.9737634  15.9949146  15.9949146  12.0000000  12.0000000
 NucSpn=           0           0           0           0           0           1           0           0           0           0
 AtZEff=  -0.0000000  -0.0000000  -0.0000000  -0.0000000  -0.0000000  -0.0000000  -0.0000000  -0.0000000  -0.0000000  -0.0000000
 NQMom=    0.0000000   0.0000000   0.0000000   0.0000000   0.0000000   0.0000000   0.0000000   0.0000000   0.0000000   0.0000000
 NMagM=    0.0000000   0.0000000   0.0000000   0.0000000   0.0000000   1.1316000   0.0000000   0.0000000   0.0000000   0.0000000
 AtZNuc=   6.0000000   6.0000000   6.0000000   6.0000000   8.0000000  15.0000000   8.0000000   8.0000000   6.0000000   6.0000000

  Atom        11          12          13          14          15          16          17          18          19          20
 IAtWgt=          12          12          12          14          12          12          12          12          12          12
 AtmWgt=  12.0000000  12.0000000  12.0000000  14.0030740  12.0000000  12.0000000  12.0000000  12.0000000  12.0000000  12.0000000
 NucSpn=           0           0           0           2           0           0           0           0           0           0
 AtZEff=  -0.0000000  -0.0000000  -0.0000000  -0.0000000  -0.0000000  -0.0000000  -0.0000000  -0.0000000  -0.0000000  -0.0000000
 NQMom=    0.0000000   0.0000000   0.0000000   2.0440000   0.0000000   0.0000000   0.0000000   0.0000000   0.0000000   0.0000000
 NMagM=    0.0000000   0.0000000   0.0000000   0.4037610   0.0000000   0.0000000   0.0000000   0.0000000   0.0000000   0.0000000
 AtZNuc=   6.0000000   6.0000000   6.0000000   7.0000000   6.0000000   6.0000000   6.0000000   6.0000000   6.0000000   6.0000000

  Atom        21          22          23          24          25          26          27          28          29          30
 IAtWgt=          12          12          14          12          31          16          16          12          12          12
 AtmWgt=  12.0000000  12.0000000  14.0030740  12.0000000  30.9737634  15.9949146  15.9949146  12.0000000  12.0000000  12.0000000
 NucSpn=           0           0           2           0           1           0           0           0           0           0
 AtZEff=  -0.0000000  -0.0000000  -0.0000000  -0.0000000  -0.0000000  -0.0000000  -0.0000000  -0.0000000  -0.0000000  -0.0000000
 NQMom=    0.0000000   0.0000000   2.0440000   0.0000000   0.0000000   0.0000000   0.0000000   0.0000000   0.0000000   0.0000000
 NMagM=    0.0000000   0.0000000   0.4037610   0.0000000   1.1316000   0.0000000   0.0000000   0.0000000   0.0000000   0.0000000
 AtZNuc=   6.0000000   6.0000000   7.0000000   6.0000000  15.0000000   8.0000000   8.0000000   6.0000000   6.0000000   6.0000000

  Atom        31          32          33          34          35          36          37          38          39          40
 IAtWgt=          12          16          12          12          12          12          12          12           1           1
 AtmWgt=  12.0000000  15.9949146  12.0000000  12.0000000  12.0000000  12.0000000  12.0000000  12.0000000   1.0078250   1.0078250
 NucSpn=           0           0           0           0           0           0           0           0           1           1
 AtZEff=  -0.0000000  -0.0000000  -0.0000000  -0.0000000  -0.0000000  -0.0000000  -0.0000000  -0.0000000  -0.0000000  -0.0000000
 NQMom=    0.0000000   0.0000000   0.0000000   0.0000000   0.0000000   0.0000000   0.0000000   0.0000000   0.0000000   0.0000000
 NMagM=    0.0000000   0.0000000   0.0000000   0.0000000   0.0000000   0.0000000   0.0000000   0.0000000   2.7928460   2.7928460
 AtZNuc=   6.0000000   8.0000000   6.0000000   6.0000000   6.0000000   6.0000000   6.0000000   6.0000000   1.0000000   1.0000000

  Atom        41          42          43          44          45          46          47          48          49          50
 IAtWgt=           1           1           1           1           1           1           1           1           1           1
 AtmWgt=   1.0078250   1.0078250   1.0078250   1.0078250   1.0078250   1.0078250   1.0078250   1.0078250   1.0078250   1.0078250
 NucSpn=           1           1           1           1           1           1           1           1           1           1
 AtZEff=  -0.0000000  -0.0000000  -0.0000000  -0.0000000  -0.0000000  -0.0000000  -0.0000000  -0.0000000  -0.0000000  -0.0000000
 NQMom=    0.0000000   0.0000000   0.0000000   0.0000000   0.0000000   0.0000000   0.0000000   0.0000000   0.0000000   0.0000000
 NMagM=    2.7928460   2.7928460   2.7928460   2.7928460   2.7928460   2.7928460   2.7928460   2.7928460   2.7928460   2.7928460
 AtZNuc=   1.0000000   1.0000000   1.0000000   1.0000000   1.0000000   1.0000000   1.0000000   1.0000000   1.0000000   1.0000000

  Atom        51          52          53          54          55          56          57          58          59          60
 IAtWgt=           1           1           1           1           1           1           1           1           1           1
 AtmWgt=   1.0078250   1.0078250   1.0078250   1.0078250   1.0078250   1.0078250   1.0078250   1.0078250   1.0078250   1.0078250
 NucSpn=           1           1           1           1           1           1           1           1           1           1
 AtZEff=  -0.0000000  -0.0000000  -0.0000000  -0.0000000  -0.0000000  -0.0000000  -0.0000000  -0.0000000  -0.0000000  -0.0000000
 NQMom=    0.0000000   0.0000000   0.0000000   0.0000000   0.0000000   0.0000000   0.0000000   0.0000000   0.0000000   0.0000000
 NMagM=    2.7928460   2.7928460   2.7928460   2.7928460   2.7928460   2.7928460   2.7928460   2.7928460   2.7928460   2.7928460
 AtZNuc=   1.0000000   1.0000000   1.0000000   1.0000000   1.0000000   1.0000000   1.0000000   1.0000000   1.0000000   1.0000000

  Atom        61          62          63          64          65          66          67          68          69          70
 IAtWgt=           1           1           1           1           1           1           1           1           1           1
 AtmWgt=   1.0078250   1.0078250   1.0078250   1.0078250   1.0078250   1.0078250   1.0078250   1.0078250   1.0078250   1.0078250
 NucSpn=           1           1           1           1           1           1           1           1           1           1
 AtZEff=  -0.0000000  -0.0000000  -0.0000000  -0.0000000  -0.0000000  -0.0000000  -0.0000000  -0.0000000  -0.0000000  -0.0000000
 NQMom=    0.0000000   0.0000000   0.0000000   0.0000000   0.0000000   0.0000000   0.0000000   0.0000000   0.0000000   0.0000000
 NMagM=    2.7928460   2.7928460   2.7928460   2.7928460   2.7928460   2.7928460   2.7928460   2.7928460   2.7928460   2.7928460
 AtZNuc=   1.0000000   1.0000000   1.0000000   1.0000000   1.0000000   1.0000000   1.0000000   1.0000000   1.0000000   1.0000000

  Atom        71          72          73          74          75          76          77          78          79          80
 IAtWgt=           1           1           1           1           1           1           1           1           1           1
 AtmWgt=   1.0078250   1.0078250   1.0078250   1.0078250   1.0078250   1.0078250   1.0078250   1.0078250   1.0078250   1.0078250
 NucSpn=           1           1           1           1           1           1           1           1           1           1
 AtZEff=  -0.0000000  -0.0000000  -0.0000000  -0.0000000  -0.0000000  -0.0000000  -0.0000000  -0.0000000  -0.0000000  -0.0000000
 NQMom=    0.0000000   0.0000000   0.0000000   0.0000000   0.0000000   0.0000000   0.0000000   0.0000000   0.0000000   0.0000000
 NMagM=    2.7928460   2.7928460   2.7928460   2.7928460   2.7928460   2.7928460   2.7928460   2.7928460   2.7928460   2.7928460
 AtZNuc=   1.0000000   1.0000000   1.0000000   1.0000000   1.0000000   1.0000000   1.0000000   1.0000000   1.0000000   1.0000000

  Atom        81
 IAtWgt=         142
 AtmWgt= 141.9075000
 NucSpn=           0
 AtZEff=  -0.0000000
 NQMom=    0.0000000
 NMagM=    0.0000000
 AtZNuc=  60.0000000
 Leave Link  101 at Wed Dec 13 14:47:08 2023, MaxMem= 17179869184 cpu:               6.9 elap:               0.5
 (Enter /public1/home/sch9811/software-sch9811/g16/l103.exe)

 GradGradGradGradGradGradGradGradGradGradGradGradGradGradGradGradGradGrad
 Berny optimization.
 Initialization pass.
                           ----------------------------
                           !    Initial Parameters    !
                           ! (Angstroms and Degrees)  !
 --------------------------                            --------------------------
 ! Name  Definition              Value          Derivative Info.                !
 --------------------------------------------------------------------------------
 ! R1    R(1,2)                  1.5379         estimate D2E/DX2                !
 ! R2    R(1,39)                 1.1386         estimate D2E/DX2                !
 ! R3    R(1,40)                 1.1401         estimate D2E/DX2                !
 ! R4    R(1,41)                 1.1399         estimate D2E/DX2                !
 ! R5    R(2,3)                  1.5405         estimate D2E/DX2                !
 ! R6    R(2,42)                 1.1399         estimate D2E/DX2                !
 ! R7    R(2,43)                 1.1398         estimate D2E/DX2                !
 ! R8    R(3,4)                  1.5426         estimate D2E/DX2                !
 ! R9    R(3,44)                 1.14           estimate D2E/DX2                !
 ! R10   R(3,45)                 1.1401         estimate D2E/DX2                !
 ! R11   R(4,5)                  1.5121         estimate D2E/DX2                !
 ! R12   R(4,46)                 1.14           estimate D2E/DX2                !
 ! R13   R(4,47)                 1.1396         estimate D2E/DX2                !
 ! R14   R(5,6)                  1.8408         estimate D2E/DX2                !
 ! R15   R(6,7)                  1.85           estimate D2E/DX2                !
 ! R16   R(6,8)                  1.8418         estimate D2E/DX2                !
 ! R17   R(6,13)                 1.877          estimate D2E/DX2                !
 ! R18   R(7,81)                 2.4493         estimate D2E/DX2                !
 ! R19   R(8,9)                  1.5117         estimate D2E/DX2                !
 ! R20   R(9,10)                 1.5396         estimate D2E/DX2                !
 ! R21   R(9,48)                 1.1399         estimate D2E/DX2                !
 ! R22   R(9,49)                 1.1374         estimate D2E/DX2                !
 ! R23   R(10,11)                1.5386         estimate D2E/DX2                !
 ! R24   R(10,50)                1.1401         estimate D2E/DX2                !
 ! R25   R(10,51)                1.1399         estimate D2E/DX2                !
 ! R26   R(11,12)                1.5403         estimate D2E/DX2                !
 ! R27   R(11,52)                1.139          estimate D2E/DX2                !
 ! R28   R(11,53)                1.14           estimate D2E/DX2                !
 ! R29   R(12,54)                1.1398         estimate D2E/DX2                !
 ! R30   R(12,55)                1.1399         estimate D2E/DX2                !
 ! R31   R(12,56)                1.14           estimate D2E/DX2                !
 ! R32   R(13,14)                1.5025         estimate D2E/DX2                !
 ! R33   R(13,18)                1.5481         estimate D2E/DX2                !
 ! R34   R(14,15)                1.4944         estimate D2E/DX2                !
 ! R35   R(14,81)                2.4476         estimate D2E/DX2                !
 ! R36   R(15,16)                1.5242         estimate D2E/DX2                !
 ! R37   R(15,22)                1.5144         estimate D2E/DX2                !
 ! R38   R(16,17)                1.5431         estimate D2E/DX2                !
 ! R39   R(16,19)                1.5475         estimate D2E/DX2                !
 ! R40   R(17,18)                1.5514         estimate D2E/DX2                !
 ! R41   R(17,57)                1.1401         estimate D2E/DX2                !
 ! R42   R(18,58)                1.1395         estimate D2E/DX2                !
 ! R43   R(19,20)                1.5545         estimate D2E/DX2                !
 ! R44   R(19,59)                1.14           estimate D2E/DX2                !
 ! R45   R(20,21)                1.5468         estimate D2E/DX2                !
 ! R46   R(20,60)                1.1403         estimate D2E/DX2                !
 ! R47   R(21,22)                1.5252         estimate D2E/DX2                !
 ! R48   R(21,38)                1.5439         estimate D2E/DX2                !
 ! R49   R(22,23)                1.4927         estimate D2E/DX2                !
 ! R50   R(23,24)                1.5008         estimate D2E/DX2                !
 ! R51   R(23,81)                2.4491         estimate D2E/DX2                !
 ! R52   R(24,25)                1.8706         estimate D2E/DX2                !
 ! R53   R(24,37)                1.5466         estimate D2E/DX2                !
 ! R54   R(25,26)                1.8469         estimate D2E/DX2                !
 ! R55   R(25,27)                1.8392         estimate D2E/DX2                !
 ! R56   R(25,32)                1.8423         estimate D2E/DX2                !
 ! R57   R(26,81)                2.452          estimate D2E/DX2                !
 ! R58   R(27,28)                1.5101         estimate D2E/DX2                !
 ! R59   R(28,29)                1.5407         estimate D2E/DX2                !
 ! R60   R(28,61)                1.14           estimate D2E/DX2                !
 ! R61   R(28,62)                1.1401         estimate D2E/DX2                !
 ! R62   R(29,30)                1.5397         estimate D2E/DX2                !
 ! R63   R(29,63)                1.1384         estimate D2E/DX2                !
 ! R64   R(29,64)                1.14           estimate D2E/DX2                !
 ! R65   R(30,31)                1.5394         estimate D2E/DX2                !
 ! R66   R(30,65)                1.1402         estimate D2E/DX2                !
 ! R67   R(30,66)                1.1402         estimate D2E/DX2                !
 ! R68   R(31,67)                1.1401         estimate D2E/DX2                !
 ! R69   R(31,68)                1.1399         estimate D2E/DX2                !
 ! R70   R(31,69)                1.1399         estimate D2E/DX2                !
 ! R71   R(32,33)                1.5135         estimate D2E/DX2                !
 ! R72   R(33,34)                1.541          estimate D2E/DX2                !
 ! R73   R(33,70)                1.1401         estimate D2E/DX2                !
 ! R74   R(33,71)                1.1399         estimate D2E/DX2                !
 ! R75   R(34,35)                1.5411         estimate D2E/DX2                !
 ! R76   R(34,72)                1.1392         estimate D2E/DX2                !
 ! R77   R(34,73)                1.1401         estimate D2E/DX2                !
 ! R78   R(35,36)                1.5387         estimate D2E/DX2                !
 ! R79   R(35,74)                1.1391         estimate D2E/DX2                !
 ! R80   R(35,75)                1.1399         estimate D2E/DX2                !
 ! R81   R(36,76)                1.1401         estimate D2E/DX2                !
 ! R82   R(36,77)                1.1399         estimate D2E/DX2                !
 ! R83   R(36,78)                1.1402         estimate D2E/DX2                !
 ! R84   R(37,38)                1.5514         estimate D2E/DX2                !
 ! R85   R(37,79)                1.1402         estimate D2E/DX2                !
 ! R86   R(38,80)                1.1402         estimate D2E/DX2                !
 ! A1    A(2,1,39)             109.266          estimate D2E/DX2                !
 ! A2    A(2,1,40)             109.5886         estimate D2E/DX2                !
 ! A3    A(2,1,41)             109.7973         estimate D2E/DX2                !
 ! A4    A(39,1,40)            109.2175         estimate D2E/DX2                !
 ! A5    A(39,1,41)            109.4087         estimate D2E/DX2                !
 ! A6    A(40,1,41)            109.5472         estimate D2E/DX2                !
 ! A7    A(1,2,3)              110.8413         estimate D2E/DX2                !
 ! A8    A(1,2,42)             108.7978         estimate D2E/DX2                !
 ! A9    A(1,2,43)             109.5382         estimate D2E/DX2                !
 ! A10   A(3,2,42)             108.8303         estimate D2E/DX2                !
 ! A11   A(3,2,43)             109.5257         estimate D2E/DX2                !
 ! A12   A(42,2,43)            109.281          estimate D2E/DX2                !
 ! A13   A(2,3,4)              112.5885         estimate D2E/DX2                !
 ! A14   A(2,3,44)             109.4847         estimate D2E/DX2                !
 ! A15   A(2,3,45)             108.028          estimate D2E/DX2                !
 ! A16   A(4,3,44)             109.338          estimate D2E/DX2                !
 ! A17   A(4,3,45)             108.263          estimate D2E/DX2                !
 ! A18   A(44,3,45)            109.0692         estimate D2E/DX2                !
 ! A19   A(3,4,5)              112.9265         estimate D2E/DX2                !
 ! A20   A(3,4,46)             108.098          estimate D2E/DX2                !
 ! A21   A(3,4,47)             109.3443         estimate D2E/DX2                !
 ! A22   A(5,4,46)             107.8791         estimate D2E/DX2                !
 ! A23   A(5,4,47)             109.474          estimate D2E/DX2                !
 ! A24   A(46,4,47)            109.0366         estimate D2E/DX2                !
 ! A25   A(4,5,6)              119.9767         estimate D2E/DX2                !
 ! A26   A(5,6,7)              109.1364         estimate D2E/DX2                !
 ! A27   A(5,6,8)              112.4598         estimate D2E/DX2                !
 ! A28   A(5,6,13)             110.9526         estimate D2E/DX2                !
 ! A29   A(7,6,8)              112.5432         estimate D2E/DX2                !
 ! A30   A(7,6,13)             103.7085         estimate D2E/DX2                !
 ! A31   A(8,6,13)             107.6976         estimate D2E/DX2                !
 ! A32   A(6,7,81)             115.676          estimate D2E/DX2                !
 ! A33   A(6,8,9)              121.0387         estimate D2E/DX2                !
 ! A34   A(8,9,10)             109.706          estimate D2E/DX2                !
 ! A35   A(8,9,48)             109.0419         estimate D2E/DX2                !
 ! A36   A(8,9,49)             110.2633         estimate D2E/DX2                !
 ! A37   A(10,9,48)            109.895          estimate D2E/DX2                !
 ! A38   A(10,9,49)            108.1846         estimate D2E/DX2                !
 ! A39   A(48,9,49)            109.7396         estimate D2E/DX2                !
 ! A40   A(9,10,11)            107.6294         estimate D2E/DX2                !
 ! A41   A(9,10,50)            109.9386         estimate D2E/DX2                !
 ! A42   A(9,10,51)            109.8816         estimate D2E/DX2                !
 ! A43   A(11,10,50)           110.7745         estimate D2E/DX2                !
 ! A44   A(11,10,51)           108.8412         estimate D2E/DX2                !
 ! A45   A(50,10,51)           109.7409         estimate D2E/DX2                !
 ! A46   A(10,11,12)           107.9226         estimate D2E/DX2                !
 ! A47   A(10,11,52)           109.3979         estimate D2E/DX2                !
 ! A48   A(10,11,53)           110.2078         estimate D2E/DX2                !
 ! A49   A(12,11,52)           109.7191         estimate D2E/DX2                !
 ! A50   A(12,11,53)           109.7349         estimate D2E/DX2                !
 ! A51   A(52,11,53)           109.8303         estimate D2E/DX2                !
 ! A52   A(11,12,54)           109.3161         estimate D2E/DX2                !
 ! A53   A(11,12,55)           109.4113         estimate D2E/DX2                !
 ! A54   A(11,12,56)           109.6902         estimate D2E/DX2                !
 ! A55   A(54,12,55)           109.142          estimate D2E/DX2                !
 ! A56   A(54,12,56)           109.5403         estimate D2E/DX2                !
 ! A57   A(55,12,56)           109.7253         estimate D2E/DX2                !
 ! A58   A(6,13,14)            117.7139         estimate D2E/DX2                !
 ! A59   A(6,13,18)            122.3104         estimate D2E/DX2                !
 ! A60   A(14,13,18)           119.0693         estimate D2E/DX2                !
 ! A61   A(13,14,15)           120.1315         estimate D2E/DX2                !
 ! A62   A(13,14,81)           120.3531         estimate D2E/DX2                !
 ! A63   A(15,14,81)           117.6929         estimate D2E/DX2                !
 ! A64   A(14,15,16)           121.9978         estimate D2E/DX2                !
 ! A65   A(14,15,22)           116.4645         estimate D2E/DX2                !
 ! A66   A(16,15,22)           121.0301         estimate D2E/DX2                !
 ! A67   A(15,16,17)           118.2623         estimate D2E/DX2                !
 ! A68   A(15,16,19)           118.8006         estimate D2E/DX2                !
 ! A69   A(17,16,19)           122.8169         estimate D2E/DX2                !
 ! A70   A(16,17,18)           119.1531         estimate D2E/DX2                !
 ! A71   A(16,17,57)           120.3654         estimate D2E/DX2                !
 ! A72   A(18,17,57)           120.3948         estimate D2E/DX2                !
 ! A73   A(13,18,17)           119.6548         estimate D2E/DX2                !
 ! A74   A(13,18,58)           120.2937         estimate D2E/DX2                !
 ! A75   A(17,18,58)           120.0271         estimate D2E/DX2                !
 ! A76   A(16,19,20)           119.84           estimate D2E/DX2                !
 ! A77   A(16,19,59)           120.1084         estimate D2E/DX2                !
 ! A78   A(20,19,59)           120.0187         estimate D2E/DX2                !
 ! A79   A(19,20,21)           119.82           estimate D2E/DX2                !
 ! A80   A(19,20,60)           120.0804         estimate D2E/DX2                !
 ! A81   A(21,20,60)           120.0797         estimate D2E/DX2                !
 ! A82   A(20,21,22)           118.7586         estimate D2E/DX2                !
 ! A83   A(20,21,38)           122.7851         estimate D2E/DX2                !
 ! A84   A(22,21,38)           118.4334         estimate D2E/DX2                !
 ! A85   A(15,22,21)           121.3192         estimate D2E/DX2                !
 ! A86   A(15,22,23)           116.4498         estimate D2E/DX2                !
 ! A87   A(21,22,23)           122.0561         estimate D2E/DX2                !
 ! A88   A(22,23,24)           120.925          estimate D2E/DX2                !
 ! A89   A(22,23,81)           117.722          estimate D2E/DX2                !
 ! A90   A(24,23,81)           121.3419         estimate D2E/DX2                !
 ! A91   A(23,24,25)           118.1315         estimate D2E/DX2                !
 ! A92   A(23,24,37)           119.4558         estimate D2E/DX2                !
 ! A93   A(25,24,37)           122.4073         estimate D2E/DX2                !
 ! A94   A(24,25,26)           104.3372         estimate D2E/DX2                !
 ! A95   A(24,25,27)           105.2269         estimate D2E/DX2                !
 ! A96   A(24,25,32)           110.9955         estimate D2E/DX2                !
 ! A97   A(26,25,27)           110.4927         estimate D2E/DX2                !
 ! A98   A(26,25,32)           111.6777         estimate D2E/DX2                !
 ! A99   A(27,25,32)           113.5326         estimate D2E/DX2                !
 ! A100  A(25,26,81)           117.2369         estimate D2E/DX2                !
 ! A101  A(25,27,28)           119.1413         estimate D2E/DX2                !
 ! A102  A(27,28,29)           109.7759         estimate D2E/DX2                !
 ! A103  A(27,28,61)           109.9342         estimate D2E/DX2                !
 ! A104  A(27,28,62)           108.9987         estimate D2E/DX2                !
 ! A105  A(29,28,61)           109.7158         estimate D2E/DX2                !
 ! A106  A(29,28,62)           108.9858         estimate D2E/DX2                !
 ! A107  A(61,28,62)           109.4099         estimate D2E/DX2                !
 ! A108  A(28,29,30)           109.723          estimate D2E/DX2                !
 ! A109  A(28,29,63)           109.7356         estimate D2E/DX2                !
 ! A110  A(28,29,64)           109.6129         estimate D2E/DX2                !
 ! A111  A(30,29,63)           108.4887         estimate D2E/DX2                !
 ! A112  A(30,29,64)           109.7989         estimate D2E/DX2                !
 ! A113  A(63,29,64)           109.4638         estimate D2E/DX2                !
 ! A114  A(29,30,31)           109.3129         estimate D2E/DX2                !
 ! A115  A(29,30,65)           109.291          estimate D2E/DX2                !
 ! A116  A(29,30,66)           109.5842         estimate D2E/DX2                !
 ! A117  A(31,30,65)           109.5493         estimate D2E/DX2                !
 ! A118  A(31,30,66)           109.5787         estimate D2E/DX2                !
 ! A119  A(65,30,66)           109.5107         estimate D2E/DX2                !
 ! A120  A(30,31,67)           109.358          estimate D2E/DX2                !
 ! A121  A(30,31,68)           109.2928         estimate D2E/DX2                !
 ! A122  A(30,31,69)           109.5077         estimate D2E/DX2                !
 ! A123  A(67,31,68)           109.5075         estimate D2E/DX2                !
 ! A124  A(67,31,69)           109.5416         estimate D2E/DX2                !
 ! A125  A(68,31,69)           109.6192         estimate D2E/DX2                !
 ! A126  A(25,32,33)           121.6821         estimate D2E/DX2                !
 ! A127  A(32,33,34)           114.1403         estimate D2E/DX2                !
 ! A128  A(32,33,70)           108.2226         estimate D2E/DX2                !
 ! A129  A(32,33,71)           108.5537         estimate D2E/DX2                !
 ! A130  A(34,33,70)           108.9341         estimate D2E/DX2                !
 ! A131  A(34,33,71)           108.0287         estimate D2E/DX2                !
 ! A132  A(70,33,71)           108.8583         estimate D2E/DX2                !
 ! A133  A(33,34,35)           110.2534         estimate D2E/DX2                !
 ! A134  A(33,34,72)           110.01           estimate D2E/DX2                !
 ! A135  A(33,34,73)           108.5674         estimate D2E/DX2                !
 ! A136  A(35,34,72)           110.6611         estimate D2E/DX2                !
 ! A137  A(35,34,73)           108.3887         estimate D2E/DX2                !
 ! A138  A(72,34,73)           108.9055         estimate D2E/DX2                !
 ! A139  A(34,35,36)           108.5828         estimate D2E/DX2                !
 ! A140  A(34,35,74)           110.4268         estimate D2E/DX2                !
 ! A141  A(34,35,75)           109.634          estimate D2E/DX2                !
 ! A142  A(36,35,74)           109.2163         estimate D2E/DX2                !
 ! A143  A(36,35,75)           109.7689         estimate D2E/DX2                !
 ! A144  A(74,35,75)           109.1985         estimate D2E/DX2                !
 ! A145  A(35,36,76)           109.5109         estimate D2E/DX2                !
 ! A146  A(35,36,77)           109.4011         estimate D2E/DX2                !
 ! A147  A(35,36,78)           109.2777         estimate D2E/DX2                !
 ! A148  A(76,36,77)           109.5656         estimate D2E/DX2                !
 ! A149  A(76,36,78)           109.5996         estimate D2E/DX2                !
 ! A150  A(77,36,78)           109.4719         estimate D2E/DX2                !
 ! A151  A(24,37,38)           119.7118         estimate D2E/DX2                !
 ! A152  A(24,37,79)           120.1028         estimate D2E/DX2                !
 ! A153  A(38,37,79)           120.1853         estimate D2E/DX2                !
 ! A154  A(21,38,37)           119.3137         estimate D2E/DX2                !
 ! A155  A(21,38,80)           120.3393         estimate D2E/DX2                !
 ! A156  A(37,38,80)           120.3327         estimate D2E/DX2                !
 ! A157  A(7,81,14)             77.2685         estimate D2E/DX2                !
 ! A158  A(7,81,23)            129.8336         estimate D2E/DX2                !
 ! A159  A(7,81,26)            114.5309         estimate D2E/DX2                !
 ! A160  A(14,81,23)            71.0492         estimate D2E/DX2                !
 ! A161  A(14,81,26)           145.7567         estimate D2E/DX2                !
 ! A162  A(23,81,26)            77.7444         estimate D2E/DX2                !
 ! D1    D(39,1,2,3)           -61.6648         estimate D2E/DX2                !
 ! D2    D(39,1,2,42)          178.7048         estimate D2E/DX2                !
 ! D3    D(39,1,2,43)           59.3043         estimate D2E/DX2                !
 ! D4    D(40,1,2,3)           178.6994         estimate D2E/DX2                !
 ! D5    D(40,1,2,42)           59.069          estimate D2E/DX2                !
 ! D6    D(40,1,2,43)          -60.3315         estimate D2E/DX2                !
 ! D7    D(41,1,2,3)            58.332          estimate D2E/DX2                !
 ! D8    D(41,1,2,42)          -61.2985         estimate D2E/DX2                !
 ! D9    D(41,1,2,43)          179.3011         estimate D2E/DX2                !
 ! D10   D(1,2,3,4)             62.5786         estimate D2E/DX2                !
 ! D11   D(1,2,3,44)           -59.2674         estimate D2E/DX2                !
 ! D12   D(1,2,3,45)          -177.9269         estimate D2E/DX2                !
 ! D13   D(42,2,3,4)          -177.8104         estimate D2E/DX2                !
 ! D14   D(42,2,3,44)           60.3436         estimate D2E/DX2                !
 ! D15   D(42,2,3,45)          -58.3159         estimate D2E/DX2                !
 ! D16   D(43,2,3,4)           -58.3979         estimate D2E/DX2                !
 ! D17   D(43,2,3,44)          179.7561         estimate D2E/DX2                !
 ! D18   D(43,2,3,45)           61.0966         estimate D2E/DX2                !
 ! D19   D(2,3,4,5)            -64.6333         estimate D2E/DX2                !
 ! D20   D(2,3,4,46)           176.0971         estimate D2E/DX2                !
 ! D21   D(2,3,4,47)            57.5153         estimate D2E/DX2                !
 ! D22   D(44,3,4,5)            57.2958         estimate D2E/DX2                !
 ! D23   D(44,3,4,46)          -61.9739         estimate D2E/DX2                !
 ! D24   D(44,3,4,47)          179.4444         estimate D2E/DX2                !
 ! D25   D(45,3,4,5)           176.0088         estimate D2E/DX2                !
 ! D26   D(45,3,4,46)           56.7391         estimate D2E/DX2                !
 ! D27   D(45,3,4,47)          -61.8427         estimate D2E/DX2                !
 ! D28   D(3,4,5,6)            134.4909         estimate D2E/DX2                !
 ! D29   D(46,4,5,6)          -106.1129         estimate D2E/DX2                !
 ! D30   D(47,4,5,6)            12.4151         estimate D2E/DX2                !
 ! D31   D(4,5,6,7)             -7.99           estimate D2E/DX2                !
 ! D32   D(4,5,6,8)           -133.6205         estimate D2E/DX2                !
 ! D33   D(4,5,6,13)           105.6804         estimate D2E/DX2                !
 ! D34   D(5,6,7,81)            96.9283         estimate D2E/DX2                !
 ! D35   D(8,6,7,81)          -137.4894         estimate D2E/DX2                !
 ! D36   D(13,6,7,81)          -21.3824         estimate D2E/DX2                !
 ! D37   D(5,6,8,9)              2.8095         estimate D2E/DX2                !
 ! D38   D(7,6,8,9)           -120.9474         estimate D2E/DX2                !
 ! D39   D(13,6,8,9)           125.3625         estimate D2E/DX2                !
 ! D40   D(5,6,13,14)         -109.2917         estimate D2E/DX2                !
 ! D41   D(5,6,13,18)           81.7166         estimate D2E/DX2                !
 ! D42   D(7,6,13,14)            7.7557         estimate D2E/DX2                !
 ! D43   D(7,6,13,18)         -161.2361         estimate D2E/DX2                !
 ! D44   D(8,6,13,14)          127.2319         estimate D2E/DX2                !
 ! D45   D(8,6,13,18)          -41.7599         estimate D2E/DX2                !
 ! D46   D(6,7,81,14)           21.09           estimate D2E/DX2                !
 ! D47   D(6,7,81,23)           72.6248         estimate D2E/DX2                !
 ! D48   D(6,7,81,26)          167.0316         estimate D2E/DX2                !
 ! D49   D(6,8,9,10)          -100.9331         estimate D2E/DX2                !
 ! D50   D(6,8,9,48)           138.6683         estimate D2E/DX2                !
 ! D51   D(6,8,9,49)            18.1183         estimate D2E/DX2                !
 ! D52   D(8,9,10,11)           65.3967         estimate D2E/DX2                !
 ! D53   D(8,9,10,50)          -55.3457         estimate D2E/DX2                !
 ! D54   D(8,9,10,51)         -176.2271         estimate D2E/DX2                !
 ! D55   D(48,9,10,11)        -174.7241         estimate D2E/DX2                !
 ! D56   D(48,9,10,50)          64.5334         estimate D2E/DX2                !
 ! D57   D(48,9,10,51)         -56.3479         estimate D2E/DX2                !
 ! D58   D(49,9,10,11)         -54.9262         estimate D2E/DX2                !
 ! D59   D(49,9,10,50)        -175.6687         estimate D2E/DX2                !
 ! D60   D(49,9,10,51)          63.45           estimate D2E/DX2                !
 ! D61   D(9,10,11,12)          60.7747         estimate D2E/DX2                !
 ! D62   D(9,10,11,52)         -58.5555         estimate D2E/DX2                !
 ! D63   D(9,10,11,53)        -179.4093         estimate D2E/DX2                !
 ! D64   D(50,10,11,12)       -179.0098         estimate D2E/DX2                !
 ! D65   D(50,10,11,52)         61.6599         estimate D2E/DX2                !
 ! D66   D(50,10,11,53)        -59.1939         estimate D2E/DX2                !
 ! D67   D(51,10,11,12)        -58.2689         estimate D2E/DX2                !
 ! D68   D(51,10,11,52)       -177.5992         estimate D2E/DX2                !
 ! D69   D(51,10,11,53)         61.547          estimate D2E/DX2                !
 ! D70   D(10,11,12,54)         61.5337         estimate D2E/DX2                !
 ! D71   D(10,11,12,55)        -57.9333         estimate D2E/DX2                !
 ! D72   D(10,11,12,56)       -178.3429         estimate D2E/DX2                !
 ! D73   D(52,11,12,54)       -179.3399         estimate D2E/DX2                !
 ! D74   D(52,11,12,55)         61.193          estimate D2E/DX2                !
 ! D75   D(52,11,12,56)        -59.2165         estimate D2E/DX2                !
 ! D76   D(53,11,12,54)        -58.5803         estimate D2E/DX2                !
 ! D77   D(53,11,12,55)       -178.0473         estimate D2E/DX2                !
 ! D78   D(53,11,12,56)         61.5431         estimate D2E/DX2                !
 ! D79   D(6,13,14,15)        -154.738          estimate D2E/DX2                !
 ! D80   D(6,13,14,81)           9.5393         estimate D2E/DX2                !
 ! D81   D(18,13,14,15)         14.6216         estimate D2E/DX2                !
 ! D82   D(18,13,14,81)        178.8989         estimate D2E/DX2                !
 ! D83   D(6,13,18,17)         163.2421         estimate D2E/DX2                !
 ! D84   D(6,13,18,58)         -14.959          estimate D2E/DX2                !
 ! D85   D(14,13,18,17)         -5.6062         estimate D2E/DX2                !
 ! D86   D(14,13,18,58)        176.1927         estimate D2E/DX2                !
 ! D87   D(13,14,15,16)        -13.356          estimate D2E/DX2                !
 ! D88   D(13,14,15,22)        158.5462         estimate D2E/DX2                !
 ! D89   D(81,14,15,16)       -178.0432         estimate D2E/DX2                !
 ! D90   D(81,14,15,22)         -6.1409         estimate D2E/DX2                !
 ! D91   D(13,14,81,7)         -17.4436         estimate D2E/DX2                !
 ! D92   D(13,14,81,23)       -157.9703         estimate D2E/DX2                !
 ! D93   D(13,14,81,26)       -132.5634         estimate D2E/DX2                !
 ! D94   D(15,14,81,7)         147.2082         estimate D2E/DX2                !
 ! D95   D(15,14,81,23)          6.6814         estimate D2E/DX2                !
 ! D96   D(15,14,81,26)         32.0884         estimate D2E/DX2                !
 ! D97   D(14,15,16,17)          2.5951         estimate D2E/DX2                !
 ! D98   D(14,15,16,19)        178.7224         estimate D2E/DX2                !
 ! D99   D(22,15,16,17)       -168.9425         estimate D2E/DX2                !
 ! D100  D(22,15,16,19)          7.1848         estimate D2E/DX2                !
 ! D101  D(14,15,22,21)       -175.1633         estimate D2E/DX2                !
 ! D102  D(14,15,22,23)          0.125          estimate D2E/DX2                !
 ! D103  D(16,15,22,21)         -3.1771         estimate D2E/DX2                !
 ! D104  D(16,15,22,23)        172.1112         estimate D2E/DX2                !
 ! D105  D(15,16,17,18)          6.3372         estimate D2E/DX2                !
 ! D106  D(15,16,17,57)       -177.035          estimate D2E/DX2                !
 ! D107  D(19,16,17,18)       -169.6244         estimate D2E/DX2                !
 ! D108  D(19,16,17,57)          7.0034         estimate D2E/DX2                !
 ! D109  D(15,16,19,20)         -5.3701         estimate D2E/DX2                !
 ! D110  D(15,16,19,59)        176.7169         estimate D2E/DX2                !
 ! D111  D(17,16,19,20)        170.5708         estimate D2E/DX2                !
 ! D112  D(17,16,19,59)         -7.3422         estimate D2E/DX2                !
 ! D113  D(16,17,18,13)         -4.8169         estimate D2E/DX2                !
 ! D114  D(16,17,18,58)        173.3891         estimate D2E/DX2                !
 ! D115  D(57,17,18,13)        178.5563         estimate D2E/DX2                !
 ! D116  D(57,17,18,58)         -3.2377         estimate D2E/DX2                !
 ! D117  D(16,19,20,21)         -0.3585         estimate D2E/DX2                !
 ! D118  D(16,19,20,60)       -178.7358         estimate D2E/DX2                !
 ! D119  D(59,19,20,21)        177.5563         estimate D2E/DX2                !
 ! D120  D(59,19,20,60)         -0.821          estimate D2E/DX2                !
 ! D121  D(19,20,21,22)          4.3758         estimate D2E/DX2                !
 ! D122  D(19,20,21,38)       -173.8526         estimate D2E/DX2                !
 ! D123  D(60,20,21,22)       -177.247          estimate D2E/DX2                !
 ! D124  D(60,20,21,38)          4.5246         estimate D2E/DX2                !
 ! D125  D(20,21,22,15)         -2.692          estimate D2E/DX2                !
 ! D126  D(20,21,22,23)       -177.7139         estimate D2E/DX2                !
 ! D127  D(38,21,22,15)        175.6143         estimate D2E/DX2                !
 ! D128  D(38,21,22,23)          0.5924         estimate D2E/DX2                !
 ! D129  D(20,21,38,37)        175.8478         estimate D2E/DX2                !
 ! D130  D(20,21,38,80)         -2.7754         estimate D2E/DX2                !
 ! D131  D(22,21,38,37)         -2.386          estimate D2E/DX2                !
 ! D132  D(22,21,38,80)        178.9907         estimate D2E/DX2                !
 ! D133  D(15,22,23,24)       -172.8509         estimate D2E/DX2                !
 ! D134  D(15,22,23,81)          5.9465         estimate D2E/DX2                !
 ! D135  D(21,22,23,24)          2.3998         estimate D2E/DX2                !
 ! D136  D(21,22,23,81)       -178.8028         estimate D2E/DX2                !
 ! D137  D(22,23,24,25)        177.3573         estimate D2E/DX2                !
 ! D138  D(22,23,24,37)         -3.4699         estimate D2E/DX2                !
 ! D139  D(81,23,24,25)         -1.3962         estimate D2E/DX2                !
 ! D140  D(81,23,24,37)        177.7766         estimate D2E/DX2                !
 ! D141  D(22,23,81,7)         -60.4729         estimate D2E/DX2                !
 ! D142  D(22,23,81,14)         -6.6201         estimate D2E/DX2                !
 ! D143  D(22,23,81,26)       -172.3167         estimate D2E/DX2                !
 ! D144  D(24,23,81,7)         118.3192         estimate D2E/DX2                !
 ! D145  D(24,23,81,14)        172.1719         estimate D2E/DX2                !
 ! D146  D(24,23,81,26)          6.4754         estimate D2E/DX2                !
 ! D147  D(23,24,25,26)         -6.4122         estimate D2E/DX2                !
 ! D148  D(23,24,25,27)        109.9509         estimate D2E/DX2                !
 ! D149  D(23,24,25,32)       -126.8406         estimate D2E/DX2                !
 ! D150  D(37,24,25,26)        174.4409         estimate D2E/DX2                !
 ! D151  D(37,24,25,27)        -69.1959         estimate D2E/DX2                !
 ! D152  D(37,24,25,32)         54.0125         estimate D2E/DX2                !
 ! D153  D(23,24,37,38)          1.6064         estimate D2E/DX2                !
 ! D154  D(23,24,37,79)       -178.5436         estimate D2E/DX2                !
 ! D155  D(25,24,37,38)       -179.2576         estimate D2E/DX2                !
 ! D156  D(25,24,37,79)          0.5924         estimate D2E/DX2                !
 ! D157  D(24,25,26,81)         11.4834         estimate D2E/DX2                !
 ! D158  D(27,25,26,81)       -101.1556         estimate D2E/DX2                !
 ! D159  D(32,25,26,81)        131.4538         estimate D2E/DX2                !
 ! D160  D(24,25,27,28)          9.2574         estimate D2E/DX2                !
 ! D161  D(26,25,27,28)        121.3254         estimate D2E/DX2                !
 ! D162  D(32,25,27,28)       -112.3136         estimate D2E/DX2                !
 ! D163  D(24,25,32,33)       -118.206          estimate D2E/DX2                !
 ! D164  D(26,25,32,33)        125.8194         estimate D2E/DX2                !
 ! D165  D(27,25,32,33)          0.0862         estimate D2E/DX2                !
 ! D166  D(25,26,81,7)        -138.4595         estimate D2E/DX2                !
 ! D167  D(25,26,81,14)        -34.5763         estimate D2E/DX2                !
 ! D168  D(25,26,81,23)        -10.041          estimate D2E/DX2                !
 ! D169  D(25,27,28,29)        -64.1316         estimate D2E/DX2                !
 ! D170  D(25,27,28,61)        175.0884         estimate D2E/DX2                !
 ! D171  D(25,27,28,62)         55.1718         estimate D2E/DX2                !
 ! D172  D(27,28,29,30)        178.106          estimate D2E/DX2                !
 ! D173  D(27,28,29,63)         58.994          estimate D2E/DX2                !
 ! D174  D(27,28,29,64)        -61.2475         estimate D2E/DX2                !
 ! D175  D(61,28,29,30)        -60.9822         estimate D2E/DX2                !
 ! D176  D(61,28,29,63)        179.9058         estimate D2E/DX2                !
 ! D177  D(61,28,29,64)         59.6643         estimate D2E/DX2                !
 ! D178  D(62,28,29,30)         58.7946         estimate D2E/DX2                !
 ! D179  D(62,28,29,63)        -60.3173         estimate D2E/DX2                !
 ! D180  D(62,28,29,64)        179.4412         estimate D2E/DX2                !
 ! D181  D(28,29,30,31)         60.1148         estimate D2E/DX2                !
 ! D182  D(28,29,30,65)        -59.7745         estimate D2E/DX2                !
 ! D183  D(28,29,30,66)       -179.7814         estimate D2E/DX2                !
 ! D184  D(63,29,30,31)        179.9907         estimate D2E/DX2                !
 ! D185  D(63,29,30,65)         60.1014         estimate D2E/DX2                !
 ! D186  D(63,29,30,66)        -59.9056         estimate D2E/DX2                !
 ! D187  D(64,29,30,31)        -60.419          estimate D2E/DX2                !
 ! D188  D(64,29,30,65)        179.6917         estimate D2E/DX2                !
 ! D189  D(64,29,30,66)         59.6847         estimate D2E/DX2                !
 ! D190  D(29,30,31,67)         60.1778         estimate D2E/DX2                !
 ! D191  D(29,30,31,68)        -59.6889         estimate D2E/DX2                !
 ! D192  D(29,30,31,69)       -179.7831         estimate D2E/DX2                !
 ! D193  D(65,30,31,67)        179.9082         estimate D2E/DX2                !
 ! D194  D(65,30,31,68)         60.0415         estimate D2E/DX2                !
 ! D195  D(65,30,31,69)        -60.0527         estimate D2E/DX2                !
 ! D196  D(66,30,31,67)        -59.9293         estimate D2E/DX2                !
 ! D197  D(66,30,31,68)       -179.796          estimate D2E/DX2                !
 ! D198  D(66,30,31,69)         60.1098         estimate D2E/DX2                !
 ! D199  D(25,32,33,34)         16.5489         estimate D2E/DX2                !
 ! D200  D(25,32,33,70)       -104.9107         estimate D2E/DX2                !
 ! D201  D(25,32,33,71)        137.0907         estimate D2E/DX2                !
 ! D202  D(32,33,34,35)         63.4405         estimate D2E/DX2                !
 ! D203  D(32,33,34,72)        -58.8782         estimate D2E/DX2                !
 ! D204  D(32,33,34,73)       -177.9617         estimate D2E/DX2                !
 ! D205  D(70,33,34,35)       -175.4939         estimate D2E/DX2                !
 ! D206  D(70,33,34,72)         62.1874         estimate D2E/DX2                !
 ! D207  D(70,33,34,73)        -56.896          estimate D2E/DX2                !
 ! D208  D(71,33,34,35)        -57.3938         estimate D2E/DX2                !
 ! D209  D(71,33,34,72)       -179.7125         estimate D2E/DX2                !
 ! D210  D(71,33,34,73)         61.2041         estimate D2E/DX2                !
 ! D211  D(33,34,35,36)         58.2134         estimate D2E/DX2                !
 ! D212  D(33,34,35,74)        -61.5059         estimate D2E/DX2                !
 ! D213  D(33,34,35,75)        178.134          estimate D2E/DX2                !
 ! D214  D(72,34,35,36)       -179.8522         estimate D2E/DX2                !
 ! D215  D(72,34,35,74)         60.4286         estimate D2E/DX2                !
 ! D216  D(72,34,35,75)        -59.9315         estimate D2E/DX2                !
 ! D217  D(73,34,35,36)        -60.4937         estimate D2E/DX2                !
 ! D218  D(73,34,35,74)        179.787          estimate D2E/DX2                !
 ! D219  D(73,34,35,75)         59.4269         estimate D2E/DX2                !
 ! D220  D(34,35,36,76)        179.9919         estimate D2E/DX2                !
 ! D221  D(34,35,36,77)         59.895          estimate D2E/DX2                !
 ! D222  D(34,35,36,78)        -59.9452         estimate D2E/DX2                !
 ! D223  D(74,35,36,76)        -59.5361         estimate D2E/DX2                !
 ! D224  D(74,35,36,77)       -179.6329         estimate D2E/DX2                !
 ! D225  D(74,35,36,78)         60.5268         estimate D2E/DX2                !
 ! D226  D(75,35,36,76)         60.1554         estimate D2E/DX2                !
 ! D227  D(75,35,36,77)        -59.9415         estimate D2E/DX2                !
 ! D228  D(75,35,36,78)       -179.7818         estimate D2E/DX2                !
 ! D229  D(24,37,38,21)          1.3113         estimate D2E/DX2                !
 ! D230  D(24,37,38,80)        179.9347         estimate D2E/DX2                !
 ! D231  D(79,37,38,21)       -178.5385         estimate D2E/DX2                !
 ! D232  D(79,37,38,80)          0.0848         estimate D2E/DX2                !
 --------------------------------------------------------------------------------
 Trust Radius=3.00D-01 FncErr=1.00D-07 GrdErr=1.00D-06 EigMax=2.50D+02 EigMin=1.00D-04
 Number of steps in this run=    486 maximum allowed number of steps=    486.
 GradGradGradGradGradGradGradGradGradGradGradGradGradGradGradGradGradGrad

 Leave Link  103 at Wed Dec 13 14:47:09 2023, MaxMem= 17179869184 cpu:               0.4 elap:               0.1
 (Enter /public1/home/sch9811/software-sch9811/g16/l202.exe)
 Stoichiometry    C28H42N2NdO6P2(3+)
 Framework group  C1[X(C28H42N2NdO6P2)]
 Deg. of freedom   237
 Full point group                 C1      NOp   1
 Largest Abelian subgroup         C1      NOp   1
 Largest concise Abelian subgroup C1      NOp   1
                         Standard orientation:                         
 ---------------------------------------------------------------------
 Center     Atomic      Atomic             Coordinates (Angstroms)
 Number     Number       Type             X           Y           Z
 ---------------------------------------------------------------------
      1          6           0        6.494306   -2.534148   -0.261632
      2          6           0        5.937685   -3.617179    0.677661
      3          6           0        5.428756   -2.994364    1.991574
      4          6           0        4.258034   -2.014986    1.768583
      5          8           0        4.653760   -0.797367    0.964108
      6         15           0        3.576512   -0.212414   -0.409202
      7          8           0        2.235499   -1.453551   -0.698880
      8          8           0        4.529956    0.166939   -1.938698
      9          6           0        6.021980   -0.067128   -2.005318
     10          6           0        6.765811    1.267610   -1.816578
     11          6           0        6.483795    1.760055   -0.386447
     12          6           0        7.021240    0.700864    0.594190
     13          6           0        2.645708    1.341448    0.083080
     14          7           0        1.165021    1.226457    0.310570
     15          6           0        0.285484    2.423341    0.145511
     16          6           0        0.852542    3.834402    0.043560
     17          6           0        2.385749    4.008194    0.053608
     18          6           0        3.289480    2.747745    0.016434
     19          6           0       -0.124364    5.017835   -0.156264
     20          6           0       -1.638733    4.742439   -0.374113
     21          6           0       -2.160057    3.286308   -0.398307
     22          6           0       -1.183142    2.152160   -0.105583
     23          7           0       -1.594952    0.718412   -0.158365
     24          6           0       -2.988694    0.330457   -0.557590
     25         15           0       -3.399102   -1.491060   -0.670294
     26          8           0       -1.780334   -2.341499   -0.410833
     27          8           0       -4.532226   -1.819119    0.740738
     28          6           0       -5.074239   -0.654560    1.534733
     29          6           0       -3.917961    0.076049    2.243875
     30          6           0       -4.466008    1.291062    3.014547
     31          6           0       -5.485110    0.811073    4.063668
     32          8           0       -4.128934   -1.902958   -2.310899
     33          6           0       -5.532278   -2.454879   -2.440676
     34          6           0       -6.404300   -2.261237   -1.184929
     35          6           0       -6.619122   -0.760011   -0.910923
     36          6           0       -7.283047   -0.126234   -2.145921
     37          6           0       -4.033903    1.434659   -0.840720
     38          6           0       -3.620846    2.926991   -0.745611
     39          1           0        5.662287   -1.803905   -0.527774
     40          1           0        6.886384   -3.020172   -1.215503
     41          1           0        7.340471   -1.972137    0.255682
     42          1           0        6.770500   -4.357007    0.919540
     43          1           0        5.083611   -4.167573    0.161058
     44          1           0        6.284558   -2.447933    2.509888
     45          1           0        5.064429   -3.839348    2.664689
     46          1           0        3.895860   -1.657840    2.788832
     47          1           0        3.406482   -2.558446    1.241209
     48          1           0        6.283001   -0.516595   -3.019876
     49          1           0        6.347085   -0.774974   -1.176444
     50          1           0        6.402206    2.027357   -2.584940
     51          1           0        7.887949    1.106287   -1.935806
     52          1           0        5.360416    1.881815   -0.242899
     53          1           0        7.007345    2.755825   -0.202443
     54          1           0        8.147163    0.593410    0.453229
     55          1           0        6.520615   -0.300936    0.381562
     56          1           0        6.799998    1.021871    1.665479
     57          1           0        2.847825    5.050178    0.030038
     58          1           0        4.418522    2.858578   -0.090345
     59          1           0        0.269942    6.087238   -0.179363
     60          1           0       -2.358937    5.610244   -0.543266
     61          1           0       -5.825266   -1.026880    2.307355
     62          1           0       -5.590831    0.071336    0.823328
     63          1           0       -3.166866    0.446489    1.472733
     64          1           0       -3.400021   -0.637831    2.966218
     65          1           0       -4.976801    2.001575    2.283650
     66          1           0       -3.607961    1.832259    3.535028
     67          1           0       -4.971492    0.099701    4.791608
     68          1           0       -6.338584    0.267613    3.538597
     69          1           0       -5.896084    1.708639    4.633625
     70          1           0       -5.457347   -3.568961   -2.670822
     71          1           0       -6.048334   -1.932417   -3.312561
     72          1           0       -5.915492   -2.767424   -0.289059
     73          1           0       -7.421190   -2.741926   -1.371435
     74          1           0       -5.622082   -0.244893   -0.715431
     75          1           0       -7.293273   -0.629366   -0.001104
     76          1           0       -7.449637    0.986224   -1.959912
     77          1           0       -8.284456   -0.634915   -2.340397
     78          1           0       -6.604037   -0.265152   -3.051236
     79          1           0       -5.102565    1.152314   -1.120594
     80          1           0       -4.382528    3.749641   -0.953254
     81         60           0        0.092019   -0.972188    0.384022
 ---------------------------------------------------------------------
 Rotational constants (GHZ):           0.1273077           0.0408574           0.0360688
 Leave Link  202 at Wed Dec 13 14:47:10 2023, MaxMem= 17179869184 cpu:               1.0 elap:               0.1
 (Enter /public1/home/sch9811/software-sch9811/g16/l301.exe)
 General basis read from cards:  (5D, 7F)
 Centers:       5      7      8     26     27     32      6     25     39     40
 Centers:      41     42     43     44     45     46     47     48     49     50
 Centers:      51     52     53     54     55     56     57     58     59     60
 Centers:      61     62     63     64     65     66     67     68     69     70
 Centers:      71     72     73     74     75     76     77     78     79     80
 Centers:       1      2      3      4      9     10     11     12     13     15
 Centers:      16     17     18     19     20     21     22     24     28     29
 Centers:      30     31     33     34     35     36     37     38     14     23
 6-31G*
 ****
 Centers:      81
 MWB49
 ****
 ======================================================================================================
                                       Pseudopotential Parameters
 ======================================================================================================
  Center     Atomic      Valence      Angular      Power
  Number     Number     Electrons     Momentum     of R      Exponent        Coefficient   SO-Coeffient
 ======================================================================================================
    1          6
                                   No pseudopotential on this center.
    2          6
                                   No pseudopotential on this center.
    3          6
                                   No pseudopotential on this center.
    4          6
                                   No pseudopotential on this center.
    5          8
                                   No pseudopotential on this center.
    6         15
                                   No pseudopotential on this center.
    7          8
                                   No pseudopotential on this center.
    8          8
                                   No pseudopotential on this center.
    9          6
                                   No pseudopotential on this center.
   10          6
                                   No pseudopotential on this center.
   11          6
                                   No pseudopotential on this center.
   12          6
                                   No pseudopotential on this center.
   13          6
                                   No pseudopotential on this center.
   14          7
                                   No pseudopotential on this center.
   15          6
                                   No pseudopotential on this center.
   16          6
                                   No pseudopotential on this center.
   17          6
                                   No pseudopotential on this center.
   18          6
                                   No pseudopotential on this center.
   19          6
                                   No pseudopotential on this center.
   20          6
                                   No pseudopotential on this center.
   21          6
                                   No pseudopotential on this center.
   22          6
                                   No pseudopotential on this center.
   23          7
                                   No pseudopotential on this center.
   24          6
                                   No pseudopotential on this center.
   25         15
                                   No pseudopotential on this center.
   26          8
                                   No pseudopotential on this center.
   27          8
                                   No pseudopotential on this center.
   28          6
                                   No pseudopotential on this center.
   29          6
                                   No pseudopotential on this center.
   30          6
                                   No pseudopotential on this center.
   31          6
                                   No pseudopotential on this center.
   32          8
                                   No pseudopotential on this center.
   33          6
                                   No pseudopotential on this center.
   34          6
                                   No pseudopotential on this center.
   35          6
                                   No pseudopotential on this center.
   36          6
                                   No pseudopotential on this center.
   37          6
                                   No pseudopotential on this center.
   38          6
                                   No pseudopotential on this center.
   39          1
                                   No pseudopotential on this center.
   40          1
                                   No pseudopotential on this center.
   41          1
                                   No pseudopotential on this center.
   42          1
                                   No pseudopotential on this center.
   43          1
                                   No pseudopotential on this center.
   44          1
                                   No pseudopotential on this center.
   45          1
                                   No pseudopotential on this center.
   46          1
                                   No pseudopotential on this center.
   47          1
                                   No pseudopotential on this center.
   48          1
                                   No pseudopotential on this center.
   49          1
                                   No pseudopotential on this center.
   50          1
                                   No pseudopotential on this center.
   51          1
                                   No pseudopotential on this center.
   52          1
                                   No pseudopotential on this center.
   53          1
                                   No pseudopotential on this center.
   54          1
                                   No pseudopotential on this center.
   55          1
                                   No pseudopotential on this center.
   56          1
                                   No pseudopotential on this center.
   57          1
                                   No pseudopotential on this center.
   58          1
                                   No pseudopotential on this center.
   59          1
                                   No pseudopotential on this center.
   60          1
                                   No pseudopotential on this center.
   61          1
                                   No pseudopotential on this center.
   62          1
                                   No pseudopotential on this center.
   63          1
                                   No pseudopotential on this center.
   64          1
                                   No pseudopotential on this center.
   65          1
                                   No pseudopotential on this center.
   66          1
                                   No pseudopotential on this center.
   67          1
                                   No pseudopotential on this center.
   68          1
                                   No pseudopotential on this center.
   69          1
                                   No pseudopotential on this center.
   70          1
                                   No pseudopotential on this center.
   71          1
                                   No pseudopotential on this center.
   72          1
                                   No pseudopotential on this center.
   73          1
                                   No pseudopotential on this center.
   74          1
                                   No pseudopotential on this center.
   75          1
                                   No pseudopotential on this center.
   76          1
                                   No pseudopotential on this center.
   77          1
                                   No pseudopotential on this center.
   78          1
                                   No pseudopotential on this center.
   79          1
                                   No pseudopotential on this center.
   80          1
                                   No pseudopotential on this center.
   81         60           11
                                      G and up 
                                                     2        1.0000000        0.00000000    0.00000000
                                      S - G
                                                     2        3.9755000      110.31463900    0.00000000
                                                     2        1.9878000       -5.07821000    0.00000000
                                      P - G
                                                     2        3.4045000       75.86893900    0.00000000
                                                     2        1.7023000       -1.17255300    0.00000000
                                      D - G
                                                     2        2.4044000       38.27190600    0.00000000
                                                     2        1.2022000       -0.02633900    0.00000000
                                      F - G
                                                     2        4.9206000      -51.58151800    0.00000000
 ======================================================================================================
 Ernie: Thresh=  0.10000D-02 Tol=  0.10000D-05 Strict=F.
 There are   697 symmetry adapted cartesian basis functions of A   symmetry.
 There are   656 symmetry adapted basis functions of A   symmetry.
   656 basis functions,  1335 primitive gaussians,   697 cartesian basis functions
   155 alpha electrons      155 beta electrons
       nuclear repulsion energy      5120.1850866479 Hartrees.
 IExCor= 1009 DFT=T Ex+Corr=PBE1PBE ExCW=0 ScaHFX=  0.250000
 ScaDFX=  0.750000  0.750000  1.000000  1.000000 ScalE2=  1.000000  1.000000
 IRadAn=      4 IRanWt=     -1 IRanGd=            0 ICorTp=0 IEmpDi=  4
 NAtoms=   81 NActive=   81 NUniq=   81 SFac= 1.00D+00 NAtFMM=   60 NAOKFM=T Big=T
 Integral buffers will be    131072 words long.
 Raffenetti 2 integral format.
 Two-electron integral symmetry is turned on.
 Leave Link  301 at Wed Dec 13 14:47:10 2023, MaxMem= 17179869184 cpu:               1.1 elap:               0.1
 (Enter /public1/home/sch9811/software-sch9811/g16/l302.exe)
 NPDir=0 NMtPBC=     1 NCelOv=     1 NCel=       1 NClECP=     1 NCelD=      1
         NCelK=      1 NCelE2=     1 NClLst=     1 CellRange=     0.0.
 One-electron integrals computed using PRISM.
 One-electron integral symmetry used in STVInt
   1 Symmetry operations used in ECPInt.
 ECPInt:  NShTT=   31375 NPrTT=  190885 LenC2=   21163 LenP2D=   66749.
 LDataN:  DoStor=T MaxTD1= 6 Len=  172
 NBasis=   656 RedAO= T EigKep=  7.15D-04  NBF=   656
 NBsUse=   656 1.00D-06 EigRej= -1.00D+00 NBFU=   656
 Precomputing XC quadrature grid using
 IXCGrd= 4 IRadAn=           4 IRanWt=          -1 IRanGd=           0 AccXCQ= 0.00D+00.
 Warning:  atom    81 atomic number  60 has  11 electrons.
           using simpleminded designation of core shells.
 Defaulting to unpruned grid for atomic number  60.
 Generated NRdTot=       0 NPtTot=           0 NUsed=           0 NTot=          32
 NSgBfM=   683   683   683   683   683 MxSgAt=    81 MxSgA2=    81.
 Leave Link  302 at Wed Dec 13 14:47:12 2023, MaxMem= 17179869184 cpu:              13.8 elap:               0.9
 (Enter /public1/home/sch9811/software-sch9811/g16/l303.exe)
 DipDrv:  MaxL=1.
 Leave Link  303 at Wed Dec 13 14:47:13 2023, MaxMem= 17179869184 cpu:               1.2 elap:               0.1
 (Enter /public1/home/sch9811/software-sch9811/g16/l401.exe)
 Warning:  atom    81 atomic number  60 has  11 electrons.
           using simpleminded designation of core shells.
 StAtR1:  DoIntr=F IAtCor=1 NETot=     310 Failed=F Sum= -6.94D-02 SumC=  0.00D+00
 ExpMin= 2.37D-02 ExpMax= 1.94D+04 ExpMxC= 2.91D+03 IAcc=3 IRadAn=         5 AccDes= 0.00D+00
 Harris functional with IExCor= 1009 and IRadAn=       5 diagonalized for initial guess.
 HarFok:  IExCor= 1009 AccDes= 0.00D+00 IRadAn=         5 IDoV= 1 UseB2=F ITyADJ=14
 ICtDFT=  3500011 ScaDFX=  1.000000  1.000000  1.000000  1.000000
 Warning:  atom    81 atomic number  60 has  11 electrons.
           using simpleminded designation of core shells.
 Defaulting to unpruned grid for atomic number  60.
 Warning:  atom    81 atomic number  60 has  11 electrons.
           using simpleminded designation of core shells.
 FoFCou: FMM=F IPFlag=           0 FMFlag=      100000 FMFlg1=        2001
         NFxFlg=           0 DoJE=T BraDBF=F KetDBF=T FulRan=T
         wScrn=  0.000000 ICntrl=       500 IOpCl=  0 I1Cent=   200000004 NGrid=           0
         NMat0=    1 NMatS0=      1 NMatT0=    0 NMatD0=    1 NMtDS0=    0 NMtDT0=    0
 Petite list used in FoFCou.
 Harris En= -2370.83584007814    
 JPrj=0 DoOrth=F DoCkMO=F.
 Leave Link  401 at Wed Dec 13 14:47:17 2023, MaxMem= 17179869184 cpu:              61.3 elap:               3.9
 (Enter /public1/home/sch9811/software-sch9811/g16/l502.exe)
 Integral symmetry usage will be decided dynamically.
 Closed shell SCF:
 Using DIIS extrapolation, IDIIS=  1040.
 NGot= 17179869184 LenX= 17178876786 LenY= 17178390280
 Requested convergence on RMS density matrix=1.00D-08 within 128 cycles.
 Requested convergence on MAX density matrix=1.00D-06.
 Requested convergence on             energy=1.00D-06.
 No special actions if energy rises.
 Fock matrices will be formed incrementally for  20 cycles.

 Cycle   1  Pass 1  IDiag  1:
 FoFJK:  IHMeth= 1 ICntrl=       0 DoSepK=F KAlg= 0 I1Cent=           0 FoldK=F
 IRaf= 810000000 NMat=       1 IRICut=       1 DoRegI=T DoRafI=F ISym2E= 0 IDoP0=0 IntGTp=1.
 FoFCou: FMM=T IPFlag=           0 FMFlag=      100000 FMFlg1=        2001
         NFxFlg=           0 DoJE=F BraDBF=F KetDBF=F FulRan=T
         wScrn=  0.000000 ICntrl=         0 IOpCl=  0 I1Cent=           0 NGrid=           0
         NMat0=    1 NMatS0=      1 NMatT0=    0 NMatD0=    1 NMtDS0=    0 NMtDT0=    0
 Symmetry not used in FoFCou.
 FMM levels:  10  Number of levels for PrismC:   9
 Defaulting to unpruned grid for atomic number  60.
 Defaulting to unpruned grid for atomic number  60.
 Defaulting to unpruned grid for atomic number  60.
 Defaulting to unpruned grid for atomic number  60.
 Defaulting to unpruned grid for atomic number  60.
 Defaulting to unpruned grid for atomic number  60.
[...]
 ,0.00000273,0.00000010,-0.00000040,-0.00000500,-0.00000031,-0.00000335
 ,0.00000148,-0.00000045,0.,0.00005177,0.00000875,-0.00004712,0.0000057
 9,-0.00014629,-0.00004386,-0.00061306,0.00033962,0.00002187,-0.0000917
 1,0.00011667,-0.00012032,0.00005012,-0.00003057,0.00004091,-0.00002516
 ,0.00001953,0.00000592,0.00011540,-0.00003466,0.00012791,-0.00229785,0
 .00057132,0.00199610,0.00166780,0.00374202,-0.00897615,0.00503263,-0.0
 0143138,-0.00347341,-0.00213798,-0.00036484,0.00166044,0.00682405,0.00
 103665,-0.00320244,-0.00033870,-0.00009943,0.00014350,-0.00006161,-0.0
 0011648,-0.00000999,-0.00005612,-0.00018188,0.00007405,0.00010309,-0.0
 0001446,-0.00004964,-0.00000925,0.00002092,-0.00000549,0.00001664,-0.0
 0001116,-0.00000261,-0.00000915,0.00000729,0.00000738,-0.00006801,0.00
 014322,0.00007753,0.00002274,-0.00001559,-0.00000227,-0.00000629,0.000
 01161,0.00000146,0.00000038,0.00000745,-0.00000385,0.00000816,0.000000
 98,0.00000140,0.00561432,0.00040012,-0.00337143,-0.11423194,0.04836433
 ,-0.11846645,0.00000004,0.00000283,0.00000139,0.00000010,-0.00000010,0
 .00000088,-0.00000103,-0.00000130,-0.00000075,0.00000050,0.00000022,0.
 00000082,-0.00000041,-0.00000099,-0.00000047,0.00000087,-0.00000144,-0
 .00000080,0.00000058,-0.00000003,0.00000164,-0.00000031,-0.00000083,-0
 .00000020,-0.00000137,-0.00000057,0.00000053,0.00000175,0.00000035,-0.
 00000002,0.00000073,0.00000034,0.00000023,-0.00000216,0.00000156,0.000
 00056,0.00000061,-0.00000009,0.00000040,0.00000403,-0.00000063,0.00000
 164,-0.00000047,-0.00000036,-0.00000034,0.00000096,-0.00000054,0.00000
 093,-0.00000074,-0.00000019,-0.00000030,-0.00000087,0.00000033,-0.0000
 0063,0.00000093,-0.00000622,-0.00000920,-0.00000771,-0.00000285,0.0000
 0597,0.00014679,-0.00001506,-0.00009042,0.00028014,-0.00045717,-0.0001
 4663,-0.00000735,0.00000374,0.00000272,-0.00000265,0.00001137,0.000004
 39,0.00000710,-0.00000690,-0.00000961,-0.00001176,-0.00000308,-0.00000
 539,-0.00000254,0.00000109,0.00000181,-0.00000278,-0.00000021,0.000000
 82,-0.00000113,0.00000129,-0.00000214,0.00000344,-0.00000149,-0.000001
 65,0.00000069,-0.00000345,0.00000283,-0.00000318,0.00000305,0.00000255
 ,-0.00000338,0.00000678,-0.00000123,0.00000033,-0.00000147,0.00000652,
 0.00000518,-0.00000164,0.00000311,0.00001442,0.00000172,-0.00000698,-0
 .00000135,-0.00001129,-0.00000134,0.00000437,0.00000726,0.00000718,-0.
 00000416,-0.00000647,0.00000262,-0.00001376,0.00000434,-0.00000746,-0.
 00320388,-0.00049057,0.00198975,0.10328709,-0.00000004,0.00000038,-0.0
 0000017,-0.00000011,-0.00000040,-0.00000003,0.00000127,0.00000092,-0.0
 0000052,-0.00000556,-0.00000110,0.00000429,-0.00000295,0.00000920,-0.0
 0002100,0.00000616,-0.00007761,0.00001549,0.00003451,0.00005427,0.0000
 1717,-0.00002213,0.00000888,-0.00000678,0.00000706,0.00000318,0.000003
 77,-0.00000101,0.00000068,-0.00000036,-0.00000042,0.00000040,0.0000001
 1,0.00000049,0.00000006,-0.00000018,-0.00007051,0.00002806,-0.00007999
 ,-0.00020490,-0.00029312,-0.00028398,-0.00041833,0.00082494,-0.0007337
 4,-0.00010918,0.00023000,-0.00016934,0.00009137,-0.00003037,0.00012633
 ,-0.00001637,0.00005532,-0.00002659,0.00030213,-0.00007029,0.00049508,
 -0.00073830,0.00163236,-0.00080516,-0.01016120,0.01137511,-0.01820506,
 -0.00124575,-0.00312703,-0.00290662,-0.00043663,-0.00046396,-0.0005632
 0,0.00131881,-0.00578410,0.00036756,0.00017056,0.00097229,0.00084056,0
 .00047546,-0.00028113,0.00065644,-0.00025124,-0.00032276,0.00002058,0.
 00013669,-0.00002388,-0.00008428,-0.00002255,0.00000290,0.00001904,0.0
 0001253,-0.00000007,-0.00000589,-0.00000551,0.00000444,0.00000440,0.00
 007856,-0.00029731,-0.00027739,-0.00001636,0.00017169,0.00005068,0.000
 00926,-0.00001741,0.00001624,0.00001525,-0.00008503,-0.00000218,-0.000
 00006,0.00002946,-0.00000749,0.01462536,-0.00606719,0.02535320,0.04799
 349,-0.09527337,0.08140480,-0.00000004,-0.00000029,-0.00000006,0.00000
 003,-0.00000005,-0.00000009,0.,0.00000007,0.00000013,-0.00000009,0.000
 00020,-0.00000016,0.00000002,-0.00000011,-0.00000005,-0.00000034,0.000
 00015,0.00000034,-0.00000017,0.00000010,-0.00000053,0.00000044,0.00000
 050,0.00000038,0.00000074,0.00000001,-0.00000139,-0.00000233,-0.000000
 59,-0.00000084,-0.00000041,0.00000024,-0.00000023,0.00000007,-0.000000
 04,-0.00000008,-0.00000006,-0.00000058,0.00000046,0.00000100,0.0000005
 9,-0.00000022,-0.00000079,0.,-0.00000023,0.00000011,-0.00000005,0.0000
 0015,-0.00000037,0.00000002,0.00000043,-0.00000016,-0.00000038,-0.0000
 0034,-0.00001405,-0.00000475,-0.00001997,0.00000117,-0.00000339,0.0000
 0329,0.00001512,-0.00001051,-0.00001033,0.00029312,-0.00046424,0.00035
 546,-0.00001337,0.00000701,0.00001641,-0.00001174,0.00000701,0.0000215
 7,0.00000651,-0.00000726,0.00000383,-0.00000527,0.00000568,-0.00001316
 ,-0.00000434,0.00000052,0.00000352,-0.00000366,-0.00000083,0.00000272,
 -0.00000029,0.00000079,-0.00000174,0.00000246,-0.00000060,-0.00000065,
 0.00000014,-0.00000156,0.00000151,-0.00000061,-0.00001000,-0.00001301,
 0.00000398,-0.00002526,0.00000234,0.00000414,0.00000212,-0.00000061,-0
 .00001704,0.00000623,-0.00001940,-0.00000132,0.00003892,0.00002409,-0.
 00000268,-0.00000207,-0.00000885,0.00000624,-0.00000969,-0.00001579,-0
 .00000752,0.00000841,0.00000314,-0.00000238,-0.00001020,0.00000398,-0.
 00033164,0.00109294,0.00015407,-0.05145558,0.09656066,0.00000057,-0.00
 000293,-0.00000039,-0.00000152,0.00000323,0.00000002,-0.00000092,-0.00
 000056,-0.00000246,0.00000741,0.00000108,-0.00001997,0.00001016,0.0000
 0990,0.00003463,-0.00011707,-0.00004906,-0.00007335,0.00005539,0.00003
 375,0.00004465,0.00007363,0.00000902,0.00001493,-0.00004404,-0.0000005
 9,-0.00001592,0.00000591,-0.00000063,0.00000528,-0.00000500,-0.0000000
 7,-0.00000501,-0.00000031,-0.00000106,0.00000133,-0.00006174,0.0000054
 3,0.00001138,-0.00017588,-0.00018975,-0.00021559,0.00011785,0.00073396
 ,-0.00051968,-0.00009022,0.00017562,-0.00016901,0.00006247,-0.00004730
 ,0.00011246,-0.00000705,0.00004319,-0.00004072,0.00011711,-0.00001040,
 0.00023888,0.00198018,0.00120860,0.00009612,-0.01007391,0.00768761,-0.
 01080702,-0.00365831,-0.00266839,0.00036740,0.00157534,-0.00058108,-0.
 00015865,-0.00317190,-0.00070791,0.00271816,0.00023585,0.00017195,0.00
 013741,0.00012330,-0.00009674,0.00008851,-0.00002584,0.00001136,-0.000
 04460,-0.00004156,0.00001294,0.00001103,0.00001392,0.00003511,0.000003
 14,-0.00000086,-0.00000869,-0.00000830,-0.00000254,0.00000695,0.000004
 49,0.00008120,-0.00025127,-0.00015557,-0.00003000,0.00014602,0.0000565
 2,0.00000733,-0.00002336,0.00000520,-0.00000361,-0.00001668,0.00000431
 ,0.00000022,0.00000759,0.00000166,-0.00181926,-0.00138465,0.00399484,-
 0.11890699,0.08211683,-0.25218072,-0.00000060,0.00000275,0.00000126,0.
 00000062,-0.00000041,0.00000112,-0.00000093,-0.00000006,-0.00000100,0.
 00000100,-0.00000010,0.00000122,0.00000028,-0.00000056,-0.00000105,0.0
 0000051,-0.00000072,0.00000014,0.00000090,-0.00000031,0.00000044,0.000
 00157,-0.00000226,0.00000079,-0.00000182,0.00000101,-0.00000116,0.0000
 0231,0.00000017,0.00000179,0.00000319,-0.00000060,0.00000057,-0.000002
 67,0.00000050,-0.00000050,0.00000080,0.00000158,-0.00000053,0.00000268
 ,-0.00000146,0.00000383,0.00000161,0.00000098,0.00000042,0.00000113,-0
 .00000089,0.00000055,0.00000116,0.00000118,-0.00000252,-0.00000142,0.0
 0000006,-0.00000047,-0.00001141,-0.00001040,-0.00000770,0.00000422,-0.
 00000573,-0.00000200,-0.00006469,-0.00000736,0.00006996,-0.00010554,-0
 .00088208,0.00016961,0.00000899,-0.00000430,0.00000068,0.00001143,0.00
 000669,0.00000086,-0.00002414,-0.00003560,0.00000203,-0.00000015,-0.00
 000177,0.00000190,0.00000412,0.00000149,-0.00000051,-0.00000021,0.0000
 0018,-0.00000149,0.00000168,-0.00000123,-0.00000072,0.00000077,-0.0000
 0009,-0.00000146,-0.00000082,-0.00000170,0.00000035,0.00000134,-0.0000
 1400,-0.00001216,0.00000329,-0.00001348,0.00000355,0.00000293,0.000007
 08,-0.00000605,-0.00001128,0.00000313,-0.00001055,0.00000453,0.0000078
 3,0.00002362,-0.00000086,-0.00000741,-0.00000383,0.00000327,-0.0000072
 8,-0.00001336,-0.00000001,0.00000520,-0.00000175,-0.00000173,-0.000005
 97,0.00000426,0.00216220,0.00016135,-0.00037774,0.13186668,-0.08560207
 ,0.25691642,0.00002653,-0.00033269,-0.00030959,0.00011732,0.00015134,-
 0.00000865,-0.00048953,0.00023832,-0.00003075,0.00321760,-0.00046922,-
 0.00304467,-0.00113300,0.00526818,0.00551080,-0.01169831,-0.03937070,-
 0.01047620,-0.04397731,-0.01253150,-0.03542926,0.00416650,0.00460567,0
 .00122289,-0.00356402,0.00020864,-0.00152139,0.00031317,-0.00017348,0.
 00044562,0.00023333,-0.00022306,-0.00014848,-0.00015587,0.00008927,0.0
 0001006,0.00024244,-0.00258466,-0.00132496,-0.00822473,-0.00102236,-0.
 00079231,0.00159463,0.00453955,0.00099358,0.00008981,-0.00143097,-0.00
 097842,0.00100756,0.00084116,0.00140958,-0.00228364,0.00165796,-0.0036
 6664,-0.00011208,-0.00038424,-0.00011623,-0.00032538,-0.00028683,-0.00
 040194,-0.00009960,0.00074238,-0.00142798,0.00167847,0.00683729,0.0008
 1786,-0.01056782,0.00266675,-0.00840598,-0.00363200,-0.00385890,-0.006
 80111,0.00438677,-0.00159381,-0.01256697,-0.00805259,0.00903104,0.0081
 8904,-0.00443158,-0.00099699,0.00355472,0.00258430,0.00043509,-0.00555
 288,-0.00313057,-0.00732046,0.00145944,-0.00068939,0.00239861,0.001027
 16,0.00115961,-0.00122729,-0.00062455,-0.00194369,0.00200518,0.0037986
 6,0.00072136,-0.00223528,-0.00078301,-0.00004725,0.00042156,0.00001208
 ,0.00001767,-0.00010492,-0.00016215,0.00010816,0.00002262,0.00007292,0
 .00143001,-0.00239509,0.00139583,0.00018166,0.00150473,0.00066801,-0.0
 0002841,0.00031402,0.00022051,-0.00000653,0.00002778,0.00011169,-0.000
 08106,-0.00004665,-0.00000918,-0.00001737,0.00004428,0.00007877,-0.000
 01128,-0.00006584,-0.00007753,0.00011950,-0.00011041,0.00001212,0.0000
 6662,0.00001920,0.00025224,-0.00036516,0.00017726,0.00011830,-0.000006
 80,0.00007838,-0.00024673,-0.00020222,0.00008026,-0.00003772,0.0003014
 8,-0.00006555,0.00002640,-0.00018092,0.00004870,0.00005820,0.00009378,
 0.00022520,-0.00012476,-0.00004190,-0.00011097,0.00009368,0.00002963,0
 .00015328,0.00002208,0.00001244,-0.00005473,-0.00000633,0.00008640,-0.
 00006397,-0.00011450,0.00000740,0.00011649,0.00002121,-0.00014626,0.00
 000364,-0.00017825,0.00018977,-0.00030422,-0.00002455,-0.00006273,0.00
 005366,-0.00016079,0.00004195,-0.00020011,-0.00004860,-0.00004288,0.00
 028100,0.00130872,-0.00025906,0.00012434,0.00049414,-0.00605845,0.0034
 1746,-0.00267333,0.00119457,-0.00089581,0.00050647,0.00028622,0.000036
 33,-0.00025713,-0.00023065,-0.00003792,0.00081046,-0.00014151,-0.00002
 599,0.00020311,-0.00009066,0.00023536,0.00007374,0.00017957,0.00055120
 ,-0.00015501,0.00019692,0.00012531,0.00000409,0.00002430,0.00021826,0.
 00018164,-0.00015693,-0.00014998,0.00000118,0.00009288,0.00003100,0.00
 009723,-0.00005599,0.00013237,-0.00000624,-0.00001975,0.00000116,0.000
 02734,-0.00001139,-0.00001830,0.00004058,-0.00002675,0.00002710,-0.000
 00495,-0.00001030,-0.00001753,-0.00005672,0.00026265,-0.00012228,-0.00
 004885,-0.00004596,-0.00000892,-0.00009424,0.08639634,0.00009852,-0.00
 028795,0.00002942,-0.00005074,0.00049488,-0.00001070,-0.00024805,-0.00
 014698,-0.00027573,0.00200401,0.00066308,-0.00281668,0.00031006,0.0018
 8182,0.00593513,-0.02001989,-0.02017059,-0.01277850,-0.01538850,-0.018
 25312,-0.01621672,0.00841993,0.00176954,0.00134767,-0.00494994,0.00037
 453,-0.00186038,0.00068676,-0.00018362,0.00055101,-0.00031795,-0.00002
 530,-0.00037343,-0.00002751,-0.00008531,0.00010166,-0.00819818,-0.0138
 2423,-0.00897013,-0.00373308,-0.03511513,0.00754245,0.00828835,-0.0049
 1776,0.01408276,0.00148713,-0.00077161,0.00126520,0.00147141,0.0002238
 3,0.00184201,-0.00174033,0.00498551,-0.00308045,-0.00057352,-0.0008904
 6,-0.00080344,-0.00010896,0.00025107,-0.00015663,-0.00157568,-0.001457
 48,-0.00340934,0.00459927,-0.00651815,0.00874799,0.00342717,-0.0183567
 5,0.01510682,0.00157580,0.00252412,0.00275116,-0.02752330,0.00504494,-
 0.04709161,0.01300805,-0.05021154,-0.02582215,0.00677475,-0.00084819,0
 .00537257,-0.00133255,-0.00180174,-0.00072354,-0.00177468,0.00460187,-
 0.00325431,0.00045256,0.00008454,0.00293518,0.00037841,-0.00058442,-0.
 00084202,0.00144631,0.00024168,0.00814408,0.00102421,-0.00292024,-0.00
 168159,-0.00033054,0.00026511,0.00004461,0.00008458,0.00047361,-0.0002
 6648,0.00010173,-0.00020853,0.00014358,0.00012539,-0.00521823,-0.00120
 495,0.00066060,0.00162795,0.00178426,-0.00007064,0.00033055,0.00001091
 ,0.00007465,0.00002990,0.00015368,-0.00011620,-0.00011748,-0.00008127,
 0.00011569,-0.00006365,0.00011160,-0.00004070,-0.00011044,-0.00003327,
 0.00009130,-0.00012397,0.00004620,0.00011600,0.00003327,0.00018273,0.0
 0012844,-0.00043906,0.00007025,-0.00022399,0.00017087,-0.00019423,0.00
 038333,0.00002229,0.00023008,0.00038292,-0.00008338,0.00006602,-0.0002
 0122,0.00010637,-0.00004347,0.00013139,0.00023625,-0.00011296,0.000185
 30,-0.00014052,0.00027079,0.00010536,0.00006690,0.00003824,0.00008830,
 -0.00003185,0.00002674,0.00003930,0.00003860,-0.00018517,-0.00005694,0
 .00001734,-0.00003742,-0.00009384,-0.00026695,-0.00002512,-0.00022677,
 0.00032772,-0.00018672,-0.00018058,0.00002415,-0.00018586,0.00005559,-
 0.00029820,-0.00000192,-0.00003180,0.00000715,0.00011593,0.00049824,0.
 00049885,0.00053024,-0.00239645,0.00047894,-0.00070488,0.00155331,-0.0
 0453162,0.00260919,0.00092641,0.00016905,-0.00064987,-0.00034494,0.000
 19795,-0.00034674,-0.00000603,-0.00020577,0.00036683,-0.00014955,-0.00
 006274,0.00013111,0.00014611,0.00026257,-0.00009660,0.00001439,-0.0002
 6064,0.00013652,0.00002155,0.00014416,-0.00007050,-0.00011494,-0.00015
 708,0.00001456,0.00018106,0.00001059,0.00016503,-0.00007134,-0.0000767
 8,-0.00008291,0.00002224,-0.00004620,0.00017763,-0.00000036,0.00000577
 ,0.00014549,-0.00001467,-0.00000370,-0.00007151,0.00004840,0.00010775,
 -0.00011281,-0.00020239,0.00043529,-0.00042730,0.00004925,-0.00036808,
 0.00002760,0.03065324,0.16095509,0.00003430,-0.00041824,-0.00025844,-0
 .00012956,0.00032246,0.00013507,-0.00005606,0.00027812,-0.00074118,0.0
 0116183,-0.00149409,-0.00122815,0.00074798,0.00729118,0.00207509,-0.02
 001115,-0.04945822,0.00262110,-0.02302803,0.00178015,-0.03351585,0.007
 57493,0.00594796,-0.00225892,-0.00417240,0.00079450,-0.00153466,0.0004
 3300,-0.00025510,0.00073288,0.00034395,-0.00015131,-0.00012889,-0.0003
 0274,-0.00003570,0.00012077,0.00155870,-0.00025208,-0.00064984,0.00058
 945,0.01178981,-0.01493795,0.00008215,0.00879747,0.00004938,-0.0018432
 3,-0.00296736,-0.00096814,0.00154041,0.00124774,0.00190685,-0.00403459
 ,0.00177882,-0.00361814,0.00011089,-0.00032887,0.00008216,-0.00057227,
 -0.00072845,-0.00099561,-0.00163111,0.00158723,-0.00048579,0.00114553,
 0.01362910,0.00150502,-0.00734026,0.01095330,-0.03174467,-0.00541507,-
 0.00626503,-0.01308506,-0.02403781,-0.01760614,-0.03582684,0.00357256,
 -0.04085629,-0.04385092,0.01085847,0.00460288,-0.00072808,-0.00591804,
 0.00064694,0.00485085,0.00271919,-0.00485303,-0.00257405,-0.00035063,0
 .00240311,0.00170471,0.00087645,-0.00095949,-0.00098185,-0.00008188,0.
 00565684,0.00598985,0.00119422,-0.00495151,-0.00177866,-0.00047311,0.0
 0075074,0.00014131,0.00023152,-0.00009680,-0.00027065,0.00000669,-0.00
 006158,0.00004628,0.00109407,-0.00607667,0.00311315,0.00044941,0.00262
 583,0.00134148,-0.00014903,0.00028674,0.00021459,0.00005024,0.00001158
 ,0.00012565,-0.00004419,0.00008644,-0.00001591,0.00011510,-0.00000497,
 0.00013512,0.00005722,-0.00000215,-0.00020786,0.00022360,0.00005369,0.
 00027036,0.00008744,-0.00009366,0.00017116,0.00003618,-0.00048663,0.00
 015348,-0.00036088,0.00067717,-0.00094340,-0.00007569,0.00002204,0.000
 25731,0.00020811,-0.00022531,0.00000911,-0.00005028,0.00008988,-0.0001
 0481,0.00011926,0.00030245,-0.00018053,-0.00013373,-0.00011092,0.00009
 551,0.00006503,0.00015582,-0.00000314,0.00000819,-0.00004360,-0.000037
 28,0.00017950,-0.00000393,-0.00016951,0.00003199,0.00009647,-0.0000074
 9,-0.00008895,0.00006730,-0.00032207,-0.00002666,-0.00039078,0.0002141
 6,-0.00021625,0.00010065,-0.00022512,0.00000585,-0.00027521,-0.0000447
 9,0.00013436,-0.00006033,-0.00022170,0.00023187,-0.00044352,-0.0008345
 3,-0.00037615,0.00227316,0.00080793,-0.00079456,0.00103002,0.00090715,
 0.00000644,-0.00006903,-0.00030884,0.00039123,-0.00058616,-0.00118216,
 -0.00013803,0.00024776,0.00018144,-0.00026033,-0.00021771,-0.00001968,
 0.00012251,0.00039123,-0.00004934,-0.00003281,0.00006616,0.00016569,0.
 00001415,0.00032100,0.00000239,-0.00004270,-0.00026530,0.00001793,0.00
 023206,0.00003939,0.00024295,-0.00020626,0.00018591,-0.00004555,0.0000
 1505,0.00003436,0.00014972,0.00001385,-0.00004390,0.00006342,-0.000030
 67,0.00006961,-0.00003283,0.00012886,0.00003529,-0.00006602,0.00006443
 ,-0.00021983,0.00003241,0.00000957,-0.00010378,-0.00029422,0.06354734,
 0.05193438,0.16684570\\0.00000392,-0.00000057,-0.00000123,0.00000359,-
 0.00000276,0.00000132,0.00000125,0.00000003,0.00000249,0.00000897,0.00
 000056,-0.00000974,-0.00000671,-0.00000683,0.00000639,0.00000099,0.000
 00253,0.00000844,-0.00000441,-0.00000718,-0.00000420,-0.00000238,-0.00
 000001,-0.00001726,0.00000312,0.00000050,0.00001265,0.00000971,-0.0000
 0753,-0.00000742,0.00000379,0.00000277,0.00000118,0.00000138,-0.000003
 07,0.00000395,0.00000774,-0.00000139,-0.00001711,-0.00000041,0.0000074
 6,0.00000989,0.00000319,0.00000002,0.00000302,0.00001690,-0.00000376,-
 0.00000928,-0.00000668,-0.00000144,0.00000732,-0.00000408,-0.00000107,
 0.00000346,0.00000138,0.00000270,0.00000153,-0.00000699,0.00000122,0.0
 0000468,0.00000513,0.00000002,0.00000199,-0.00000702,0.00000054,0.0000
 0384,0.00000982,0.00000612,-0.00000257,-0.00001391,0.00000037,0.000001
 81,-0.00000711,0.00000240,-0.00001857,0.00000535,-0.00000642,0.0000099
 4,0.00000531,0.00000023,0.00000048,-0.00001053,0.00000451,0.00000835,-
 0.00000449,0.00000302,0.00000267,0.00000753,0.00000821,-0.00000385,-0.
 00000149,-0.00000894,0.00000365,-0.00000087,0.00000368,0.00000320,-0.0
 0001030,0.00000609,0.00000259,-0.00000366,-0.00000017,-0.00000486,-0.0
 0000679,0.00000457,0.00000191,-0.00000367,0.00000085,-0.00000050,0.000
 00195,0.00000268,0.00000035,0.00000131,-0.00000245,0.00000034,0.000001
 17,-0.00000305,-0.00000228,0.00000264,-0.00000287,-0.00000081,0.000002
 02,-0.00000336,-0.00000052,0.00000171,-0.00000062,-0.00000058,0.000002
 91,-0.00000305,-0.00000077,0.00000338,-0.00000288,0.00000249,0.0000022
 7,-0.00000203,0.00000178,0.00000425,0.00000037,0.00000129,0.00000173,-
 0.00000086,0.00000329,-0.00000210,-0.00000133,-0.00000336,0.00000272,-
 0.00000259,-0.00000178,-0.00000116,0.00000031,-0.00000061,-0.00000140,
 -0.00000097,0.00000003,-0.00000123,-0.00000113,-0.00000372,0.00000184,
 -0.00000306,0.00000035,0.00000258,-0.00000186,-0.00000245,0.00000445,-
 0.00000036,-0.00000224,0.00000280,-0.00000140,-0.00000059,0.00000163,0
 .00000011,0.00000142,0.00000183,-0.00000041,0.00000018,0.00000075,0.00
 000112,0.00000212,-0.00000015,0.00000160,0.00000183,-0.00000091,-0.000
 00053,0.00000045,0.00000024,0.00000116,-0.00000112,-0.00000443,0.00000
 364,-0.00000199,0.00000191,-0.00000633,0.00000085,-0.00000055,0.000000
 57,0.00000232,-0.00000221,0.00000081,0.00000156,0.00000002,0.00000155,
 -0.00000021,-0.00000088,0.00000320,-0.00000135,-0.00000012,0.00000166,
 0.00000068,0.00000074,0.00000136,0.00000060,-0.00000153,0.00000191,0.,
 -0.00000213,0.00000202,-0.00000158,-0.00000387,-0.00000021,-0.00000160
 ,-0.00000271,0.00000127,-0.00000058,-0.00000304,0.00000179,-0.00000187
 ,-0.00000473,0.00000243,-0.00000008,-0.00000371,0.00000092,-0.00000104
 ,-0.00000249,0.00000167,-0.00000144,-0.00000023,0.00000288,-0.00000091
 ,-0.00000295,0.00000141,0.00000218,-0.00000188,-0.00000238,-0.00000084
 \\\@
 The archive entry for this job was punched.


 THE ATTENTION SPAN OF A COMPUTER IS AS LONG
 AS ITS EXTENSION CORD.
 Job cpu time:       0 days  8 hours 28 minutes  1.7 seconds.
 Elapsed time:       0 days  0 hours 31 minutes 51.0 seconds.
 File lengths (MBytes):  RWF=   3923 Int=      0 D2E=      0 Chk=     40 Scr=      1
 Normal termination of Gaussian 16 at Wed Dec 13 16:24:18 2023.
