 Entering Gaussian System, Link 0=g16
 Input=input.gjf
 Output=output.log
 Initial command:
 /home/zzy/sw/g16/l1.exe "/home/zzy/sw/GAUSS_SCRDIR/Gau-29363.inp" -scrdir="/home/zzy/sw/GAUSS_SCRDIR/"
 Entering Link 1 = /home/zzy/sw/g16/l1.exe PID=     29365.
  
 Copyright (c) 1988,1990,1992,1993,1995,1998,2003,2009,2016,
            Gaussian, Inc.  All Rights Reserved.
  
 This is part of the Gaussian(R) 16 program.  It is based on
 the Gaussian(R) 09 system (copyright 2009, Gaussian, Inc.),
 the Gaussian(R) 03 system (copyright 2003, Gaussian, Inc.),
 the Gaussian(R) 98 system (copyright 1998, Gaussian, Inc.),
 the Gaussian(R) 94 system (copyright 1995, Gaussian, Inc.),
 the Gaussian 92(TM) system (copyright 1992, Gaussian, Inc.),
 the Gaussian 90(TM) system (copyright 1990, Gaussian, Inc.),
 the Gaussian 88(TM) system (copyright 1988, Gaussian, Inc.),
 the Gaussian 86(TM) system (copyright 1986, Carnegie Mellon
 University), and the Gaussian 82(TM) system (copyright 1983,
 Carnegie Mellon University). Gaussian is a federally registered
 trademark of Gaussian, Inc.
  
 This software contains proprietary and confidential information,
 including trade secrets, belonging to Gaussian, Inc.
  
 This software is provided under written license and may be
 used, copied, transmitted, or stored only in accord with that
 written license.
  
 The following legend is applicable only to US Government
 contracts under FAR:
  
                    RESTRICTED RIGHTS LEGEND
  
 Use, reproduction and disclosure by the US Government is
 subject to restrictions as set forth in subparagraphs (a)
 and (c) of the Commercial Computer Software - Restricted
 Rights clause in FAR 52.227-19.
  
 Gaussian, Inc.
 340 Quinnipiac St., Bldg. 40, Wallingford CT 06492
  
  
 ---------------------------------------------------------------
 Warning -- This program may not be used in any manner that
 competes with the business of Gaussian, Inc. or will provide
 assistance to any competitor of Gaussian, Inc.  The licensee
 of this program is prohibited from giving any competitor of
 Gaussian, Inc. access to this program.  By using this program,
 the user acknowledges that Gaussian, Inc. is engaged in the
 business of creating and licensing software in the field of
 computational chemistry and represents and warrants to the
 licensee that it is not a competitor of Gaussian, Inc. and that
 it will not use this program in any manner prohibited above.
 ---------------------------------------------------------------
  

 Cite this work as:
 Gaussian 16, Revision A.03,
 M. J. Frisch, G. W. Trucks, H. B. Schlegel, G. E. Scuseria, 
 M. A. Robb, J. R. Cheeseman, G. Scalmani, V. Barone, 
 G. A. Petersson, H. Nakatsuji, X. Li, M. Caricato, A. V. Marenich, 
 J. Bloino, B. G. Janesko, R. Gomperts, B. Mennucci, H. P. Hratchian, 
 J. V. Ortiz, A. F. Izmaylov, J. L. Sonnenberg, D. Williams-Young, 
 F. Ding, F. Lipparini, F. Egidi, J. Goings, B. Peng, A. Petrone, 
 T. Henderson, D. Ranasinghe, V. G. Zakrzewski, J. Gao, N. Rega, 
 G. Zheng, W. Liang, M. Hada, M. Ehara, K. Toyota, R. Fukuda, 
 J. Hasegawa, M. Ishida, T. Nakajima, Y. Honda, O. Kitao, H. Nakai, 
 T. Vreven, K. Throssell, J. A. Montgomery, Jr., J. E. Peralta, 
 F. Ogliaro, M. J. Bearpark, J. J. Heyd, E. N. Brothers, K. N. Kudin, 
 V. N. Staroverov, T. A. Keith, R. Kobayashi, J. Normand, 
 K. Raghavachari, A. P. Rendell, J. C. Burant, S. S. Iyengar, 
 J. Tomasi, M. Cossi, J. M. Millam, M. Klene, C. Adamo, R. Cammi, 
 J. W. Ochterski, R. L. Martin, K. Morokuma, O. Farkas, 
 J. B. Foresman, and D. J. Fox, Gaussian, Inc., Wallingford CT, 2016.
 
 ******************************************
 Gaussian 16:  ES64L-G16RevA.03 25-Dec-2016
                17-Jul-2023 
 ******************************************
 %nproc=24
 Will use up to   24 processors via shared memory.
 %Mem=184GB
 %rwf=/home/zzy/proj/be/readwrite.rwf
 %NoSave
 %chk=/home/zzy/proj/be/checkpoint.chk
 ------------------------
 # opt M062X Def2SVP SCRF
 ------------------------
 1/18=20,19=15,26=3,38=1/1,3;
 2/9=110,12=2,17=6,18=5,40=1/2;
 3/5=43,7=101,11=2,25=1,30=1,70=2201,71=1,74=-55/1,2,3;
 4//1;
 5/5=2,38=5/2;
 6/7=2,8=2,9=2,10=2,28=1/1;
 7//1,2,3,16;
 1/18=20,19=15,26=3/3(2);
 2/9=110/2;
 99//99;
 2/9=110/2;
 3/5=43,7=101,11=2,25=1,30=1,70=2205,71=1,74=-55/1,2,3;
 4/5=5,16=3,69=1/1;
 5/5=2,38=5/2;
 7//1,2,3,16;
 1/18=20,19=15,26=3/3(-5);
 2/9=110/2;
 6/7=2,8=2,9=2,10=2,19=2,28=1/1;
 99/9=1/99;
 ---------------------
 C 9 H 14 O 3 Sr 1 + +
 ---------------------
 Symbolic Z-matrix:
 Charge =  2 Multiplicity = 1
 O                     1.10916  -0.22806   0.6877 
 C                     0.08331  -0.20869   1.57003 
 O                     0.36978  -0.20695   2.76488 
 C                    -1.3517   -0.20032   1.02105 
 C                    -1.31696  -0.27462  -0.52417 
 C                    -2.18689   1.03646   1.43584 
 C                    -2.92325   0.59643   2.69024 
 C                    -3.32782  -0.86681   2.40415 
 C                    -2.16728  -1.33969   1.57368 
 O                    -1.95875  -2.51403   1.30412 
 C                    -3.48947  -1.65926   3.71256 
 C                    -4.62774  -0.97208   1.58099 
 Sr                   -0.5292   -0.20414   5.13898 
 H                    -0.79553   0.61209  -0.94557 
 H                    -0.78856  -1.19312  -0.86043 
 H                    -2.34435  -0.30703  -0.94819 
 H                    -1.61276   1.98473   1.51237 
 H                    -2.99112   1.21108   0.68744 
 H                    -2.16677   0.61852   3.48743 
 H                    -3.75669   1.25765   3.01137 
 H                    -4.30851  -1.2277    4.32714 
 H                    -3.73352  -2.72114   3.49396 
 H                    -2.55706  -1.64759   4.30751 
 H                    -4.55429  -0.4261    0.61797 
 H                    -4.85337  -2.03543   1.34911 
 H                    -5.48023  -0.54911   2.15442 
 H                     2.03207  -0.23674   0.97941 
 

 GradGradGradGradGradGradGradGradGradGradGradGradGradGradGradGradGradGrad
 Berny optimization.
 Initialization pass.
                           ----------------------------
                           !    Initial Parameters    !
                           ! (Angstroms and Degrees)  !
 --------------------------                            --------------------------
 ! Name  Definition              Value          Derivative Info.                !
 --------------------------------------------------------------------------------
 ! R1    R(1,2)                  1.3532         estimate D2E/DX2                !
 ! R2    R(1,27)                 0.968          estimate D2E/DX2                !
 ! R3    R(2,3)                  1.2287         estimate D2E/DX2                !
 ! R4    R(2,4)                  1.5365         estimate D2E/DX2                !
 ! R5    R(3,13)                 2.5386         estimate D2E/DX2                !
 ! R6    R(4,5)                  1.5474         estimate D2E/DX2                !
 ! R7    R(4,6)                  1.5489         estimate D2E/DX2                !
 ! R8    R(4,9)                  1.5062         estimate D2E/DX2                !
 ! R9    R(5,14)                 1.1116         estimate D2E/DX2                !
 ! R10   R(5,15)                 1.1117         estimate D2E/DX2                !
 ! R11   R(5,16)                 1.1119         estimate D2E/DX2                !
 ! R12   R(6,7)                  1.5197         estimate D2E/DX2                !
 ! R13   R(6,17)                 1.1112         estimate D2E/DX2                !
 ! R14   R(6,18)                 1.1124         estimate D2E/DX2                !
 ! R15   R(7,8)                  1.5449         estimate D2E/DX2                !
 ! R16   R(7,19)                 1.0992         estimate D2E/DX2                !
 ! R17   R(7,20)                 1.1113         estimate D2E/DX2                !
 ! R18   R(8,9)                  1.5034         estimate D2E/DX2                !
 ! R19   R(8,11)                 1.5382         estimate D2E/DX2                !
 ! R20   R(8,12)                 1.5422         estimate D2E/DX2                !
 ! R21   R(9,10)                 1.2228         estimate D2E/DX2                !
 ! R22   R(11,21)                1.1112         estimate D2E/DX2                !
 ! R23   R(11,22)                1.1113         estimate D2E/DX2                !
 ! R24   R(11,23)                1.1061         estimate D2E/DX2                !
 ! R25   R(12,24)                1.1095         estimate D2E/DX2                !
 ! R26   R(12,25)                1.1115         estimate D2E/DX2                !
 ! R27   R(12,26)                1.1111         estimate D2E/DX2                !
 ! R28   R(13,19)                2.467          estimate D2E/DX2                !
 ! R29   R(13,23)                2.6243         estimate D2E/DX2                !
 ! A1    A(2,1,27)             121.7644         estimate D2E/DX2                !
 ! A2    A(1,2,3)              117.2146         estimate D2E/DX2                !
 ! A3    A(1,2,4)              118.3678         estimate D2E/DX2                !
 ! A4    A(3,2,4)              124.4162         estimate D2E/DX2                !
 ! A5    A(2,3,13)             145.7779         estimate D2E/DX2                !
 ! A6    A(2,4,5)              109.6072         estimate D2E/DX2                !
 ! A7    A(2,4,6)              114.3473         estimate D2E/DX2                !
 ! A8    A(2,4,9)              111.7468         estimate D2E/DX2                !
 ! A9    A(5,4,6)              108.5334         estimate D2E/DX2                !
 ! A10   A(5,4,9)              110.0119         estimate D2E/DX2                !
 ! A11   A(6,4,9)              102.3439         estimate D2E/DX2                !
 ! A12   A(4,5,14)             110.535          estimate D2E/DX2                !
 ! A13   A(4,5,15)             110.6333         estimate D2E/DX2                !
 ! A14   A(4,5,16)             111.1898         estimate D2E/DX2                !
 ! A15   A(14,5,15)            108.7489         estimate D2E/DX2                !
 ! A16   A(14,5,16)            108.1857         estimate D2E/DX2                !
 ! A17   A(15,5,16)            107.442          estimate D2E/DX2                !
 ! A18   A(4,6,7)              104.5435         estimate D2E/DX2                !
 ! A19   A(4,6,17)             114.9139         estimate D2E/DX2                !
 ! A20   A(4,6,18)             109.5731         estimate D2E/DX2                !
 ! A21   A(7,6,17)             116.1435         estimate D2E/DX2                !
 ! A22   A(7,6,18)             104.5062         estimate D2E/DX2                !
 ! A23   A(17,6,18)            106.6145         estimate D2E/DX2                !
 ! A24   A(6,7,8)              104.3765         estimate D2E/DX2                !
 ! A25   A(6,7,19)             105.0318         estimate D2E/DX2                !
 ! A26   A(6,7,20)             115.4452         estimate D2E/DX2                !
 ! A27   A(8,7,19)             109.4855         estimate D2E/DX2                !
 ! A28   A(8,7,20)             114.8773         estimate D2E/DX2                !
 ! A29   A(19,7,20)            107.1339         estimate D2E/DX2                !
 ! A30   A(7,8,9)              101.4238         estimate D2E/DX2                !
 ! A31   A(7,8,11)             110.975          estimate D2E/DX2                !
 ! A32   A(7,8,12)             112.596          estimate D2E/DX2                !
 ! A33   A(9,8,11)             112.8897         estimate D2E/DX2                !
 ! A34   A(9,8,12)             109.5333         estimate D2E/DX2                !
 ! A35   A(11,8,12)            109.285          estimate D2E/DX2                !
 ! A36   A(4,9,8)              112.503          estimate D2E/DX2                !
 ! A37   A(4,9,10)             123.5898         estimate D2E/DX2                !
 ! A38   A(8,9,10)             123.7453         estimate D2E/DX2                !
 ! A39   A(8,11,21)            110.3547         estimate D2E/DX2                !
 ! A40   A(8,11,22)            110.3672         estimate D2E/DX2                !
 ! A41   A(8,11,23)            111.3153         estimate D2E/DX2                !
 ! A42   A(21,11,22)           108.544          estimate D2E/DX2                !
 ! A43   A(21,11,23)           108.6473         estimate D2E/DX2                !
 ! A44   A(22,11,23)           107.5184         estimate D2E/DX2                !
 ! A45   A(8,12,24)            111.9567         estimate D2E/DX2                !
 ! A46   A(8,12,25)            110.3503         estimate D2E/DX2                !
 ! A47   A(8,12,26)            110.198          estimate D2E/DX2                !
 ! A48   A(24,12,25)           107.6473         estimate D2E/DX2                !
 ! A49   A(24,12,26)           108.1461         estimate D2E/DX2                !
 ! A50   A(25,12,26)           108.4284         estimate D2E/DX2                !
 ! A51   A(3,13,19)             67.0054         estimate D2E/DX2                !
 ! A52   A(3,13,23)             88.6665         estimate D2E/DX2                !
 ! A53   A(19,13,23)            57.2064         estimate D2E/DX2                !
 ! A54   A(7,19,13)            159.3322         estimate D2E/DX2                !
 ! A55   A(11,23,13)           145.8516         estimate D2E/DX2                !
 ! D1    D(27,1,2,3)            -0.234          estimate D2E/DX2                !
 ! D2    D(27,1,2,4)          -179.8153         estimate D2E/DX2                !
 ! D3    D(1,2,3,13)          -179.113          estimate D2E/DX2                !
 ! D4    D(4,2,3,13)             0.4405         estimate D2E/DX2                !
 ! D5    D(1,2,4,5)              2.2696         estimate D2E/DX2                !
 ! D6    D(1,2,4,6)           -119.8412         estimate D2E/DX2                !
 ! D7    D(1,2,4,9)            124.4923         estimate D2E/DX2                !
 ! D8    D(3,2,4,5)           -177.2791         estimate D2E/DX2                !
 ! D9    D(3,2,4,6)             60.6101         estimate D2E/DX2                !
 ! D10   D(3,2,4,9)            -55.0564         estimate D2E/DX2                !
 ! D11   D(2,3,13,19)          -21.3184         estimate D2E/DX2                !
 ! D12   D(2,3,13,23)           33.3263         estimate D2E/DX2                !
 ! D13   D(2,4,5,14)           -61.8625         estimate D2E/DX2                !
 ! D14   D(2,4,5,15)            58.6549         estimate D2E/DX2                !
 ! D15   D(2,4,5,16)           177.9615         estimate D2E/DX2                !
 ! D16   D(6,4,5,14)            63.6587         estimate D2E/DX2                !
 ! D17   D(6,4,5,15)          -175.8239         estimate D2E/DX2                !
 ! D18   D(6,4,5,16)           -56.5172         estimate D2E/DX2                !
 ! D19   D(9,4,5,14)           174.8853         estimate D2E/DX2                !
 ! D20   D(9,4,5,15)           -64.5972         estimate D2E/DX2                !
 ! D21   D(9,4,5,16)            54.7094         estimate D2E/DX2                !
 ! D22   D(2,4,6,7)            -93.4145         estimate D2E/DX2                !
 ! D23   D(2,4,6,17)            35.0781         estimate D2E/DX2                !
 ! D24   D(2,4,6,18)           155.0617         estimate D2E/DX2                !
 ! D25   D(5,4,6,7)            143.8898         estimate D2E/DX2                !
 ! D26   D(5,4,6,17)           -87.6176         estimate D2E/DX2                !
 ! D27   D(5,4,6,18)            32.366          estimate D2E/DX2                !
 ! D28   D(9,4,6,7)             27.6046         estimate D2E/DX2                !
 ! D29   D(9,4,6,17)           156.0973         estimate D2E/DX2                !
 ! D30   D(9,4,6,18)           -83.9192         estimate D2E/DX2                !
 ! D31   D(2,4,9,8)            116.5472         estimate D2E/DX2                !
 ! D32   D(2,4,9,10)           -67.9301         estimate D2E/DX2                !
 ! D33   D(5,4,9,8)           -121.4624         estimate D2E/DX2                !
 ! D34   D(5,4,9,10)            54.0603         estimate D2E/DX2                !
 ! D35   D(6,4,9,8)             -6.249          estimate D2E/DX2                !
 ! D36   D(6,4,9,10)           169.2737         estimate D2E/DX2                !
 ! D37   D(4,6,7,8)            -39.1619         estimate D2E/DX2                !
 ! D38   D(4,6,7,19)            76.0131         estimate D2E/DX2                !
 ! D39   D(4,6,7,20)          -166.2387         estimate D2E/DX2                !
 ! D40   D(17,6,7,8)          -166.906          estimate D2E/DX2                !
 ! D41   D(17,6,7,19)          -51.731          estimate D2E/DX2                !
 ! D42   D(17,6,7,20)           66.0172         estimate D2E/DX2                !
 ! D43   D(18,6,7,8)            75.9646         estimate D2E/DX2                !
 ! D44   D(18,6,7,19)         -168.8604         estimate D2E/DX2                !
 ! D45   D(18,6,7,20)          -51.1122         estimate D2E/DX2                !
 ! D46   D(6,7,8,9)             33.8957         estimate D2E/DX2                !
 ! D47   D(6,7,8,11)           154.0576         estimate D2E/DX2                !
 ! D48   D(6,7,8,12)           -83.0773         estimate D2E/DX2                !
 ! D49   D(19,7,8,9)           -78.11           estimate D2E/DX2                !
 ! D50   D(19,7,8,11)           42.0519         estimate D2E/DX2                !
 ! D51   D(19,7,8,12)          164.917          estimate D2E/DX2                !
 ! D52   D(20,7,8,9)           161.3232         estimate D2E/DX2                !
 ! D53   D(20,7,8,11)          -78.5148         estimate D2E/DX2                !
 ! D54   D(20,7,8,12)           44.3502         estimate D2E/DX2                !
 ! D55   D(6,7,19,13)         -104.4144         estimate D2E/DX2                !
 ! D56   D(8,7,19,13)            7.1612         estimate D2E/DX2                !
 ! D57   D(20,7,19,13)         132.3338         estimate D2E/DX2                !
 ! D58   D(7,8,9,4)            -16.9687         estimate D2E/DX2                !
 ! D59   D(7,8,9,10)           167.5167         estimate D2E/DX2                !
 ! D60   D(11,8,9,4)          -135.7668         estimate D2E/DX2                !
 ! D61   D(11,8,9,10)           48.7187         estimate D2E/DX2                !
 ! D62   D(12,8,9,4)           102.2158         estimate D2E/DX2                !
 ! D63   D(12,8,9,10)          -73.2988         estimate D2E/DX2                !
 ! D64   D(7,8,11,21)           62.6822         estimate D2E/DX2                !
 ! D65   D(7,8,11,22)         -177.3465         estimate D2E/DX2                !
 ! D66   D(7,8,11,23)          -58.0375         estimate D2E/DX2                !
 ! D67   D(9,8,11,21)          175.7679         estimate D2E/DX2                !
 ! D68   D(9,8,11,22)          -64.2607         estimate D2E/DX2                !
 ! D69   D(9,8,11,23)           55.0483         estimate D2E/DX2                !
 ! D70   D(12,8,11,21)         -62.0751         estimate D2E/DX2                !
 ! D71   D(12,8,11,22)          57.8962         estimate D2E/DX2                !
 ! D72   D(12,8,11,23)         177.2052         estimate D2E/DX2                !
 ! D73   D(7,8,12,24)           56.9989         estimate D2E/DX2                !
 ! D74   D(7,8,12,25)          176.877          estimate D2E/DX2                !
 ! D75   D(7,8,12,26)          -63.4064         estimate D2E/DX2                !
 ! D76   D(9,8,12,24)          -55.0428         estimate D2E/DX2                !
 ! D77   D(9,8,12,25)           64.8353         estimate D2E/DX2                !
 ! D78   D(9,8,12,26)         -175.4481         estimate D2E/DX2                !
 ! D79   D(11,8,12,24)        -179.1942         estimate D2E/DX2                !
 ! D80   D(11,8,12,25)         -59.3161         estimate D2E/DX2                !
 ! D81   D(11,8,12,26)          60.4005         estimate D2E/DX2                !
 ! D82   D(8,11,23,13)          40.7946         estimate D2E/DX2                !
 ! D83   D(21,11,23,13)        -80.9228         estimate D2E/DX2                !
 ! D84   D(22,11,23,13)        161.7871         estimate D2E/DX2                !
 ! D85   D(3,13,19,7)           77.7293         estimate D2E/DX2                !
 ! D86   D(23,13,19,7)         -26.3546         estimate D2E/DX2                !
 ! D87   D(3,13,23,11)         -70.724          estimate D2E/DX2                !
 ! D88   D(19,13,23,11)         -7.457          estimate D2E/DX2                !
 --------------------------------------------------------------------------------
 Trust Radius=3.00D-01 FncErr=1.00D-07 GrdErr=1.00D-06 EigMax=2.50D+02 EigMin=1.00D-04
 Number of steps in this run=    162 maximum allowed number of steps=    162.
 GradGradGradGradGradGradGradGradGradGradGradGradGradGradGradGradGradGrad

                          Input orientation:                          
 ---------------------------------------------------------------------
 Center     Atomic      Atomic             Coordinates (Angstroms)
 Number     Number       Type             X           Y           Z
 ---------------------------------------------------------------------
      1          8           0        1.109160   -0.228060    0.687700
      2          6           0        0.083310   -0.208690    1.570030
      3          8           0        0.369780   -0.206950    2.764880
      4          6           0       -1.351700   -0.200320    1.021050
      5          6           0       -1.316960   -0.274620   -0.524170
      6          6           0       -2.186890    1.036460    1.435840
      7          6           0       -2.923250    0.596430    2.690240
      8          6           0       -3.327820   -0.866810    2.404150
      9          6           0       -2.167280   -1.339690    1.573680
     10          8           0       -1.958750   -2.514030    1.304120
     11          6           0       -3.489470   -1.659260    3.712560
     12          6           0       -4.627740   -0.972080    1.580990
     13         38           0       -0.529200   -0.204140    5.138980
     14          1           0       -0.795530    0.612090   -0.945570
     15          1           0       -0.788560   -1.193120   -0.860430
     16          1           0       -2.344350   -0.307030   -0.948190
     17          1           0       -1.612760    1.984730    1.512370
     18          1           0       -2.991120    1.211080    0.687440
     19          1           0       -2.166770    0.618520    3.487430
     20          1           0       -3.756690    1.257650    3.011370
     21          1           0       -4.308510   -1.227700    4.327140
     22          1           0       -3.733520   -2.721140    3.493960
     23          1           0       -2.557060   -1.647590    4.307510
     24          1           0       -4.554290   -0.426100    0.617970
     25          1           0       -4.853370   -2.035430    1.349110
     26          1           0       -5.480230   -0.549110    2.154420
     27          1           0        2.032070   -0.236740    0.979410
 ---------------------------------------------------------------------
                    Distance matrix (angstroms):
                    1          2          3          4          5
     1  O    0.000000
     2  C    1.353237   0.000000
     3  O    2.204950   1.228713   0.000000
     4  C    2.483490   1.536458   2.450404   0.000000
     5  C    2.712352   2.520075   3.696961   1.547395   0.000000
     6  C    3.608694   2.592723   3.138308   1.548941   2.513434
     7  C    4.577148   3.307944   3.390433   2.427092   3.697476
     8  C    4.800104   3.572770   3.773299   2.502444   3.601292
     9  C    3.571518   2.518795   3.023033   1.506232   2.501678
    10  O    3.875268   3.091166   3.588661   2.408712   2.961333
    11  C    5.687311   4.411275   4.230971   3.734005   4.958519
    12  C    5.853508   4.772513   5.192516   3.411977   3.984898
    13  Sr   4.743278   3.621131   2.538607   4.199270   5.718112
    14  H    2.645991   2.788240   3.974445   2.199302   1.111630
    15  H    2.632373   2.763403   3.931559   2.200624   1.111719
    16  H    3.822186   3.499234   4.600370   2.207860   1.111923
    17  H    3.603522   2.773278   3.209783   2.254771   3.056085
    18  H    4.345506   3.499547   4.197882   2.188845   2.545214
    19  H    4.391686   3.069782   2.763615   2.723576   4.196762
    20  H    5.593145   4.355825   4.385609   3.445436   4.560721
    21  H    6.602723   5.284706   5.036763   4.552853   5.778663
    22  H    6.127160   4.958034   4.867215   4.259446   5.288723
    23  H    5.344086   4.066421   3.608538   3.787915   5.173783
    24  H    5.667340   4.739306   5.376218   3.235743   3.436239
    25  H    6.265446   5.268453   5.712183   3.966982   4.372165
    26  H    6.758284   5.604496   5.891719   4.295456   4.958125
    27  H    0.967953   2.036488   2.439672   3.384222   3.671265
                    6          7          8          9         10
     6  C    0.000000
     7  C    1.519662   0.000000
     8  C    2.421112   1.544861   0.000000
     9  C    2.380225   2.359398   1.503379   0.000000
    10  O    3.560250   3.539287   2.407852   1.222793   0.000000
    11  C    3.761260   2.540449   1.538195   2.534782   2.978979
    12  C    3.164340   2.568257   1.542228   2.487781   3.094798
    13  Sr   4.242673   3.516918   3.968715   4.084623   4.699506
    14  H    2.790535   4.212666   4.451995   3.469548   4.023284
    15  H    3.492737   4.512942   4.148711   2.801293   2.792745
    16  H    2.741051   3.793354   3.538185   2.730855   3.176860
    17  H    1.111170   2.243243   3.444994   3.370908   4.516848
    18  H    1.112376   2.096094   2.716263   2.823218   3.914400
    19  H    2.093824   1.099210   2.174336   2.738070   3.824001
    20  H    2.235060   1.111287   2.250772   3.367395   4.513631
    21  H    4.241145   2.815286   2.188581   3.489835   4.039142
    22  H    4.554940   3.508386   2.188794   2.837074   2.826323
    23  H    3.948118   2.790212   2.196922   2.778589   3.182616
    24  H    2.900444   2.828456   2.211084   2.728708   3.401041
    25  H    4.068679   3.528552   2.192278   2.783804   2.934264
    26  H    3.725114   2.852632   2.190015   3.455129   4.121255
    27  H    4.430462   5.308136   5.581693   4.382259   4.606314
                   11         12         13         14         15
    11  C    0.000000
    12  C    2.512263   0.000000
    13  Sr   3.593779   5.481519   0.000000
    14  H    5.840764   4.855814   6.144828   0.000000
    15  H    5.331457   4.555073   6.085907   1.807230   0.000000
    16  H    4.986223   3.471731   6.352873   1.801009   1.792579
    17  H    4.652047   4.223451   4.372363   2.931463   4.050706
    18  H    4.199828   2.871088   5.280162   2.801094   3.609342
    19  H    2.643577   3.495840   2.466986   4.640240   4.907687
    20  H    3.011883   2.788622   4.132825   4.984234   5.459570
    21  H    1.111206   2.776435   3.998743   6.597524   6.269141
    22  H    1.111277   2.741951   4.394206   6.281054   5.474335
    23  H    1.106115   3.489691   2.624330   5.983644   5.481034
    24  H    3.497286   1.109458   6.057239   4.201282   4.117610
    25  H    2.754564   1.111481   6.034499   5.361062   4.702577
    26  H    2.761043   1.111065   5.791313   5.736265   5.613897
    27  H    6.323059   6.727235   4.884996   3.524398   3.500804
                   16         17         18         19         20
    16  H    0.000000
    17  H    3.441183   0.000000
    18  H    2.323414   1.782953   0.000000
    19  H    4.534634   2.464613   2.978359   0.000000
    20  H    4.485649   2.715158   2.447226   1.778473   0.000000
    21  H    5.703917   5.050713   4.574995   2.949693   2.865784
    22  H    5.243130   5.528972   4.887747   3.688913   4.008017
    23  H    5.428142   4.679558   4.633067   2.441334   3.399928
    24  H    2.711249   3.907000   2.264660   3.876246   3.033075
    25  H    3.815775   5.166226   3.800738   4.339779   3.848401
    26  H    4.417979   4.667965   3.383189   3.757565   2.639950
    27  H    4.782639   4.301600   5.235825   4.965067   6.314413
                   21         22         23         24         25
    21  H    0.000000
    22  H    1.804208   0.000000
    23  H    1.801186   1.788416   0.000000
    24  H    3.802751   3.769906   4.369631   0.000000
    25  H    3.133363   2.514884   3.765048   1.792751   0.000000
    26  H    2.560102   3.092423   3.793070   1.798103   1.802949
    27  H    7.238249   6.762931   5.841820   6.598987   7.126096
                   26         27
    26  H    0.000000
    27  H    7.610051   0.000000
 Stoichiometry    C9H14O3Sr(2+)
 Framework group  C1[X(C9H14O3Sr)]
 Deg. of freedom    75
 Full point group                 C1      NOp   1
 Largest Abelian subgroup         C1      NOp   1
 Largest concise Abelian subgroup C1      NOp   1
                         Standard orientation:                         
 ---------------------------------------------------------------------
 Center     Atomic      Atomic             Coordinates (Angstroms)
 Number     Number       Type             X           Y           Z
 ---------------------------------------------------------------------
      1          8           0       -0.813603    3.145532   -0.299063
      2          6           0       -0.401447    1.876679   -0.072369
      3          8           0        0.805332    1.656709   -0.143300
      4          6           0       -1.461363    0.810442    0.244522
      5          6           0       -2.871337    1.444691    0.180232
      6          6           0       -1.289953    0.130302    1.625552
      7          6           0       -0.467202   -1.114666    1.338311
      8          6           0       -1.023393   -1.640865   -0.003464
      9          6           0       -1.378076   -0.357957   -0.702389
     10          8           0       -1.653946   -0.286045   -1.891484
     11          6           0        0.039180   -2.458794   -0.757108
     12          6           0       -2.292798   -2.497984    0.176600
     13         38           0        2.632749   -0.097329    0.025281
     14          1           0       -2.972205    2.248912    0.941006
     15          1           0       -3.060183    1.878681   -0.825705
     16          1           0       -3.662169    0.686411    0.369889
     17          1           0       -0.908136    0.794587    2.430312
     18          1           0       -2.272109   -0.258981    1.973703
     19          1           0        0.559519   -0.750380    1.192013
     20          1           0       -0.434769   -1.865021    2.157381
     21          1           0        0.324749   -3.357011   -0.168521
     22          1           0       -0.355272   -2.791831   -1.741196
     23          1           0        0.947871   -1.857910   -0.948705
     24          1           0       -3.096046   -1.943879    0.704478
     25          1           0       -2.692405   -2.809475   -0.812682
     26          1           0       -2.058748   -3.411397    0.764275
     27          1           0       -0.188488    3.855153   -0.505468
 ---------------------------------------------------------------------
 Rotational constants (GHZ):           0.7214001           0.4501776           0.3318039
 Standard basis: def2SVP (5D, 7F)
 There are   275 symmetry adapted cartesian basis functions of A   symmetry.
 There are   261 symmetry adapted basis functions of A   symmetry.
   261 basis functions,   452 primitive gaussians,   275 cartesian basis functions
    50 alpha electrons       50 beta electrons
       nuclear repulsion energy       890.9166864146 Hartrees.
 NAtoms=   27 NActive=   27 NUniq=   27 SFac= 1.00D+00 NAtFMM=   60 NAOKFM=F Big=F
 Integral buffers will be    131072 words long.
 Raffenetti 2 integral format.
 Two-electron integral symmetry is turned on.
 ------------------------------------------------------------------------------
 Polarizable Continuum Model (PCM)
 =================================
 Model                : PCM.
 Atomic radii         : UFF (Universal Force Field).
 Polarization charges : Total charges.
 Charge compensation  : None.
 Solution method      : On-the-fly selection.
 Cavity type          : Scaled VdW (van der Waals Surface) (Alpha=1.100).
 Cavity algorithm     : GePol (No added spheres)
                        Default sphere list used, NSphG=   27.
                        Lebedev-Laikov grids with approx.  5.0 points / Ang**2.
                        Smoothing algorithm: York/Karplus (Gamma=1.0000).
                        Polarization charges: spherical gaussians, with
                                              point-specific exponents (IZeta= 3).
                        Self-potential: point-specific (ISelfS= 7).
                        Self-field    : sphere-specific E.n sum rule (ISelfD= 2).
 1st derivatives      : Analytical E(r).r(x)/FMM algorithm (CHGder, D1EAlg=3).
                        Cavity 1st derivative terms included.
 Solvent              : Water, Eps=  78.355300 Eps(inf)=   1.777849
 ------------------------------------------------------------------------------
 One-electron integrals computed using PRISM.
   1 Symmetry operations used in ECPInt.
 ECPInt:  NShTT=    7626 NPrTT=   27009 LenC2=    7515 LenP2D=   20879.
 LDataN:  DoStor=T MaxTD1= 6 Len=  172
 NBasis=   261 RedAO= T EigKep=  6.32D-04  NBF=   261
 NBsUse=   261 1.00D-06 EigRej= -1.00D+00 NBFU=   261
 Defaulting to unpruned grid for atomic number  38.
 ExpMin= 2.58D-02 ExpMax= 2.27D+03 ExpMxC= 3.41D+02 IAcc=3 IRadAn=         5 AccDes= 0.00D+00
 Harris functional with IExCor= 1009 and IRadAn=       5 diagonalized for initial guess.
 HarFok:  IExCor= 1009 AccDes= 0.00D+00 IRadAn=         5 IDoV= 1 UseB2=F ITyADJ=14
 ICtDFT=  3500011 ScaDFX=  1.000000  1.000000  1.000000  1.000000
 Defaulting to unpruned grid for atomic number  38.
 FoFCou: FMM=F IPFlag=           0 FMFlag=      100000 FMFlg1=           0
         NFxFlg=           0 DoJE=T BraDBF=F KetDBF=T FulRan=T
         wScrn=  0.000000 ICntrl=       500 IOpCl=  0 I1Cent=   200000004 NGrid=           0
         NMat0=    1 NMatS0=      1 NMatT0=    0 NMatD0=    1 NMtDS0=    0 NMtDT0=    0
 Petite list used in FoFCou.
 Requested convergence on RMS density matrix=1.00D-08 within 128 cycles.
 Requested convergence on MAX density matrix=1.00D-06.
 Requested convergence on             energy=1.00D-06.
 No special actions if energy rises.
 Defaulting to unpruned grid for atomic number  38.
 Defaulting to unpruned grid for atomic number  38.
 Defaulting to unpruned grid for atomic number  38.
 Defaulting to unpruned grid for atomic number  38.
 Defaulting to unpruned grid for atomic number  38.
 Defaulting to unpruned grid for atomic number  38.
 Defaulting to unpruned grid for atomic number  38.
 Defaulting to unpruned grid for atomic number  38.
 Defaulting to unpruned grid for atomic number  38.
 Defaulting to unpruned grid for atomic number  38.
 Defaulting to unpruned grid for atomic number  38.
 Defaulting to unpruned grid for atomic number  38.
 Defaulting to unpruned grid for atomic number  38.
 Defaulting to unpruned grid for atomic number  38.
 Defaulting to unpruned grid for atomic number  38.
 Defaulting to unpruned grid for atomic number  38.
 Defaulting to unpruned grid for atomic number  38.
 Defaulting to unpruned grid for atomic number  38.
 Defaulting to unpruned grid for atomic number  38.
 Defaulting to unpruned grid for atomic number  38.
 Defaulting to unpruned grid for atomic number  38.
 Defaulting to unpruned grid for atomic number  38.
 Defaulting to unpruned grid for atomic number  38.
 Defaulting to unpruned grid for atomic number  38.
 Inv3:  Mode=1 IEnd=    11360748.
 Iteration    1 A*A^-1 deviation from unit magnitude is 2.78D-15 for   1499.
 Iteration    1 A*A^-1 deviation from orthogonality  is 2.34D-15 for   1173    626.
 Iteration    1 A^-1*A deviation from unit magnitude is 3.55D-15 for    757.
 Iteration    1 A^-1*A deviation from orthogonality  is 2.58D-15 for   1878   1037.
 Error on total polarization charges =  0.00877
 SCF Done:  E(RM062X) =  -606.912361639     A.U. after   15 cycles
            NFock= 15  Conv=0.30D-08     -V/T= 2.0472

 **********************************************************************

            Population analysis using the SCF density.

 **********************************************************************

 Orbital symmetries:
       Occupied  (A) (A) (A) (A) (A) (A) (A) (A) (A) (A) (A) (A)
                 (A) (A) (A) (A) (A) (A) (A) (A) (A) (A) (A) (A)
                 (A) (A) (A) (A) (A) (A) (A) (A) (A) (A) (A) (A)
                 (A) (A) (A) (A) (A) (A) (A) (A) (A) (A) (A) (A)
                 (A) (A)
       Virtual   (A) (A) (A) (A) (A) (A) (A) (A) (A) (A) (A) (A)
                 (A) (A) (A) (A) (A) (A) (A) (A) (A) (A) (A) (A)
                 (A) (A) (A) (A) (A) (A) (A) (A) (A) (A) (A) (A)
                 (A) (A) (A) (A) (A) (A) (A) (A) (A) (A) (A) (A)
                 (A) (A) (A) (A) (A) (A) (A) (A) (A) (A) (A) (A)
                 (A) (A) (A) (A) (A) (A) (A) (A) (A) (A) (A) (A)
                 (A) (A) (A) (A) (A) (A) (A) (A) (A) (A) (A) (A)
                 (A) (A) (A) (A) (A) (A) (A) (A) (A) (A) (A) (A)
                 (A) (A) (A) (A) (A) (A) (A) (A) (A) (A) (A) (A)
                 (A) (A) (A) (A) (A) (A) (A) (A) (A) (A) (A) (A)
                 (A) (A) (A) (A) (A) (A) (A) (A) (A) (A) (A) (A)
                 (A) (A) (A) (A) (A) (A) (A) (A) (A) (A) (A) (A)
                 (A) (A) (A) (A) (A) (A) (A) (A) (A) (A) (A) (A)
                 (A) (A) (A) (A) (A) (A) (A) (A) (A) (A) (A) (A)
                 (A) (A) (A) (A) (A) (A) (A) (A) (A) (A) (A) (A)
                 (A) (A) (A) (A) (A) (A) (A) (A) (A) (A) (A) (A)
                 (A) (A) (A) (A) (A) (A) (A) (A) (A) (A) (A) (A)
                 (A) (A) (A) (A) (A) (A) (A)
 The electronic state is 1-A.
 Alpha  occ. eigenvalues --  -19.70546 -19.67962 -19.65939 -10.75065 -10.67052
 Alpha  occ. eigenvalues --  -10.61417 -10.59225 -10.58516 -10.58412 -10.57769
 Alpha  occ. eigenvalues --  -10.57255 -10.56977  -1.70408  -1.25079  -1.17838
 Alpha  occ. eigenvalues --   -1.15501  -0.98849  -0.96725  -0.96293  -0.96161
 Alpha  occ. eigenvalues --   -0.91459  -0.83970  -0.79044  -0.77429  -0.76631
 Alpha  occ. eigenvalues --   -0.73455  -0.68858  -0.63458  -0.62217  -0.59288
 Alpha  occ. eigenvalues --   -0.57768  -0.56603  -0.54466  -0.53199  -0.52483
 Alpha  occ. eigenvalues --   -0.50266  -0.50097  -0.49267  -0.47649  -0.46597
 Alpha  occ. eigenvalues --   -0.46015  -0.45645  -0.44913  -0.43560  -0.42966
 Alpha  occ. eigenvalues --   -0.41579  -0.40819  -0.40433  -0.39284  -0.34337
 Alpha virt. eigenvalues --   -0.02419  -0.01297  -0.00761   0.03136   0.03184
 Alpha virt. eigenvalues --    0.04350   0.05293   0.05371   0.05766   0.06229
 Alpha virt. eigenvalues --    0.06696   0.08677   0.10189   0.11330   0.11847
 Alpha virt. eigenvalues --    0.12078   0.13016   0.13204   0.13626   0.15044
 Alpha virt. eigenvalues --    0.15316   0.15562   0.16244   0.16991   0.17911
 Alpha virt. eigenvalues --    0.18993   0.19428   0.20389   0.20922   0.21693
 Alpha virt. eigenvalues --    0.21862   0.22265   0.22914   0.23818   0.25325
 Alpha virt. eigenvalues --    0.25755   0.27097   0.29235   0.30366   0.30660
 Alpha virt. eigenvalues --    0.33387   0.34115   0.35974   0.37180   0.38533
 Alpha virt. eigenvalues --    0.40005   0.45258   0.46565   0.47389   0.48004
 Alpha virt. eigenvalues --    0.50170   0.52936   0.54395   0.55196   0.57261
 Alpha virt. eigenvalues --    0.59503   0.60028   0.61115   0.62298   0.63201
 Alpha virt. eigenvalues --    0.64311   0.65162   0.65535   0.67115   0.67563
 Alpha virt. eigenvalues --    0.68350   0.68926   0.69680   0.70398   0.70892
 Alpha virt. eigenvalues --    0.71986   0.72458   0.72650   0.73519   0.73820
 Alpha virt. eigenvalues --    0.74545   0.74861   0.76177   0.77776   0.78460
 Alpha virt. eigenvalues --    0.79066   0.81332   0.82422   0.84555   0.85975
 Alpha virt. eigenvalues --    0.87964   0.90766   0.93987   0.94362   0.97313
 Alpha virt. eigenvalues --    1.01408   1.03553   1.04794   1.05762   1.06452
 Alpha virt. eigenvalues --    1.09742   1.12781   1.14781   1.16168   1.18205
 Alpha virt. eigenvalues --    1.19847   1.21744   1.24754   1.26800   1.32334
 Alpha virt. eigenvalues --    1.33379   1.36924   1.37583   1.40322   1.42743
 Alpha virt. eigenvalues --    1.44390   1.45744   1.48668   1.52509   1.53456
 Alpha virt. eigenvalues --    1.55959   1.56610   1.57356   1.58963   1.59715
 Alpha virt. eigenvalues --    1.62115   1.65170   1.67617   1.70494   1.73317
 Alpha virt. eigenvalues --    1.74101   1.75149   1.76283   1.77410   1.78700
 Alpha virt. eigenvalues --    1.79872   1.80994   1.81808   1.82579   1.82808
 Alpha virt. eigenvalues --    1.83624   1.84854   1.85302   1.87184   1.88180
 Alpha virt. eigenvalues --    1.89031   1.89738   1.91807   1.92725   1.94508
 Alpha virt. eigenvalues --    1.96149   1.97036   1.97290   1.98393   1.99511
 Alpha virt. eigenvalues --    2.00483   2.02098   2.03699   2.06848   2.08156
 Alpha virt. eigenvalues --    2.11179   2.12915   2.17278   2.17754   2.20667
 Alpha virt. eigenvalues --    2.22277   2.25066   2.26766   2.30981   2.34610
 Alpha virt. eigenvalues --    2.35893   2.39030   2.40961   2.42554   2.43468
 Alpha virt. eigenvalues --    2.44310   2.47223   2.49998   2.51224   2.54984
 Alpha virt. eigenvalues --    2.56584   2.61584   2.62815   2.64554   2.65550
 Alpha virt. eigenvalues --    2.67104   2.70435   2.74024   2.75453   2.76747
 Alpha virt. eigenvalues --    2.77814   2.80171   2.84622   2.84697   2.85526
 Alpha virt. eigenvalues --    2.86603   2.87992   2.92090   2.93121   2.94463
 Alpha virt. eigenvalues --    2.96061   2.97571   2.98242   2.99818   3.01479
 Alpha virt. eigenvalues --    3.06373   3.08666   3.17648   3.18872   3.25441
 Alpha virt. eigenvalues --    3.40221   3.56061   3.61989   3.67178   3.79308
 Alpha virt. eigenvalues --   30.27868
          Condensed to atoms (all electrons):
               1          2          3          4          5          6
     1  O    7.616564   0.471612  -0.092625  -0.118765   0.012953  -0.000443
     2  C    0.471612   4.529415   0.576959   0.044960  -0.015105  -0.028593
     3  O   -0.092625   0.576959   7.855147  -0.114419   0.003789   0.004389
     4  C   -0.118765   0.044960  -0.114419   6.556539   0.271921   0.249029
     5  C    0.012953  -0.015105   0.003789   0.271921   4.537906  -0.041572
     6  C   -0.000443  -0.028593   0.004389   0.249029  -0.041572   4.792889
     7  C    0.000258  -0.005902   0.004039  -0.019095   0.008159   0.316948
     8  C   -0.000247   0.004084  -0.004126  -0.289244   0.008114   0.006973
     9  C   -0.000057   0.000257   0.015778   0.068378  -0.019573  -0.084732
    10  O   -0.000058   0.006900  -0.000117  -0.117451   0.004680   0.005048
    11  C    0.000002  -0.000015  -0.000043   0.015468  -0.000304   0.007496
    12  C    0.000001   0.000571  -0.000008   0.002742  -0.001012  -0.002695
    13  Sr  -0.003060  -0.009396   0.100610   0.000574   0.001339   0.000211
    14  H    0.003888  -0.011794   0.000060  -0.015778   0.399839  -0.006805
    15  H    0.002260  -0.006505   0.000067  -0.024403   0.396498   0.008434
    16  H    0.000432   0.007224  -0.000078  -0.018206   0.397681  -0.008860
    17  H    0.000466  -0.007243  -0.000609  -0.011875  -0.001544   0.374834
    18  H   -0.000037   0.006265  -0.000038  -0.015049  -0.005861   0.393892
    19  H   -0.000070   0.005789  -0.002483  -0.004300   0.000190  -0.033810
    20  H    0.000000  -0.000184   0.000041   0.006229  -0.000244  -0.009163
    21  H   -0.000000  -0.000002  -0.000004  -0.000725   0.000006   0.000733
    22  H   -0.000000  -0.000069  -0.000008   0.001658  -0.000033  -0.000850
    23  H   -0.000000  -0.000025  -0.000875   0.001300  -0.000039   0.000578
    24  H    0.000000   0.000049  -0.000003  -0.001861  -0.000524   0.005650
    25  H    0.000000  -0.000049   0.000000   0.001685  -0.000132  -0.001054
    26  H   -0.000000   0.000002   0.000000  -0.000386   0.000069  -0.001128
    27  H    0.323865  -0.009237   0.000220   0.012366  -0.000987  -0.000254
               7          8          9         10         11         12
     1  O    0.000258  -0.000247  -0.000057  -0.000058   0.000002   0.000001
     2  C   -0.005902   0.004084   0.000257   0.006900  -0.000015   0.000571
     3  O    0.004039  -0.004126   0.015778  -0.000117  -0.000043  -0.000008
     4  C   -0.019095  -0.289244   0.068378  -0.117451   0.015468   0.002742
     5  C    0.008159   0.008114  -0.019573   0.004680  -0.000304  -0.001012
     6  C    0.316948   0.006973  -0.084732   0.005048   0.007496  -0.002695
     7  C    4.922092   0.211996  -0.042849   0.005579  -0.054892  -0.067381
     8  C    0.211996   5.983901   0.124654  -0.109419   0.315409   0.341116
     9  C   -0.042849   0.124654   5.098157   0.735796  -0.036202  -0.041640
    10  O    0.005579  -0.109419   0.735796   7.665337   0.007257  -0.002265
    11  C   -0.054892   0.315409  -0.036202   0.007257   4.599574  -0.037144
    12  C   -0.067381   0.341116  -0.041640  -0.002265  -0.037144   4.605414
    13  Sr   0.016268  -0.003112   0.006787   0.012510   0.015270  -0.001177
    14  H    0.000974  -0.000753   0.008707   0.000108   0.000007   0.000013
    15  H   -0.001039   0.002099  -0.008373   0.007144  -0.000034  -0.000042
    16  H   -0.000138  -0.000363  -0.004033  -0.000680  -0.000021   0.000953
    17  H   -0.001809   0.004210   0.005163  -0.000084  -0.000239  -0.000098
    18  H   -0.034362  -0.000810  -0.011192   0.000020   0.000455   0.004042
    19  H    0.357627  -0.025303  -0.014776   0.000107  -0.005375   0.008872
    20  H    0.373642  -0.006980   0.004471  -0.000088  -0.002188  -0.006128
    21  H   -0.005275  -0.020972   0.008409   0.000049   0.402231  -0.006233
    22  H    0.009129  -0.022984  -0.007844   0.005862   0.389155  -0.005169
    23  H   -0.012383  -0.012133  -0.012959  -0.001674   0.387851   0.006870
    24  H   -0.008369  -0.025821  -0.002062  -0.000073   0.006673   0.401567
    25  H    0.009864  -0.026034  -0.003475   0.004458  -0.006394   0.391480
    26  H   -0.004766  -0.025247   0.007804  -0.000003  -0.006451   0.401812
    27  H   -0.000021   0.000018  -0.000322  -0.000020  -0.000000   0.000000
              13         14         15         16         17         18
     1  O   -0.003060   0.003888   0.002260   0.000432   0.000466  -0.000037
     2  C   -0.009396  -0.011794  -0.006505   0.007224  -0.007243   0.006265
     3  O    0.100610   0.000060   0.000067  -0.000078  -0.000609  -0.000038
     4  C    0.000574  -0.015778  -0.024403  -0.018206  -0.011875  -0.015049
     5  C    0.001339   0.399839   0.396498   0.397681  -0.001544  -0.005861
     6  C    0.000211  -0.006805   0.008434  -0.008860   0.374834   0.393892
     7  C    0.016268   0.000974  -0.001039  -0.000138  -0.001809  -0.034362
     8  C   -0.003112  -0.000753   0.002099  -0.000363   0.004210  -0.000810
     9  C    0.006787   0.008707  -0.008373  -0.004033   0.005163  -0.011192
    10  O    0.012510   0.000108   0.007144  -0.000680  -0.000084   0.000020
    11  C    0.015270   0.000007  -0.000034  -0.000021  -0.000239   0.000455
    12  C   -0.001177   0.000013  -0.000042   0.000953  -0.000098   0.004042
    13  Sr   8.085278  -0.000226   0.000923  -0.000485   0.004665  -0.002981
    14  H   -0.000226   0.580938  -0.019701  -0.019631   0.002055  -0.000695
    15  H    0.000923  -0.019701   0.593610  -0.020040  -0.000362   0.000558
    16  H   -0.000485  -0.019631  -0.020040   0.594342   0.000025   0.003273
    17  H    0.004665   0.002055  -0.000362   0.000025   0.566750  -0.016775
    18  H   -0.002981  -0.000695   0.000558   0.003273  -0.016775   0.596891
    19  H    0.021833  -0.000078   0.000047   0.000001  -0.012042   0.009318
    20  H    0.004912   0.000001   0.000017  -0.000035  -0.002148  -0.007330
    21  H    0.005012  -0.000000   0.000000   0.000000  -0.000002  -0.000032
    22  H    0.000357   0.000001  -0.000009   0.000004   0.000015   0.000018
    23  H    0.014360  -0.000000   0.000001   0.000004  -0.000032  -0.000017
    24  H   -0.000417  -0.000021  -0.000015   0.001858  -0.000116   0.003826
    25  H    0.000280   0.000004  -0.000038   0.000008   0.000023  -0.000399
    26  H   -0.000704  -0.000001   0.000002  -0.000036  -0.000026   0.000474
    27  H    0.001151  -0.000052  -0.000017   0.000009  -0.000038   0.000012
              19         20         21         22         23         24
     1  O   -0.000070   0.000000  -0.000000  -0.000000  -0.000000   0.000000
     2  C    0.005789  -0.000184  -0.000002  -0.000069  -0.000025   0.000049
     3  O   -0.002483   0.000041  -0.000004  -0.000008  -0.000875  -0.000003
     4  C   -0.004300   0.006229  -0.000725   0.001658   0.001300  -0.001861
     5  C    0.000190  -0.000244   0.000006  -0.000033  -0.000039  -0.000524
     6  C   -0.033810  -0.009163   0.000733  -0.000850   0.000578   0.005650
     7  C    0.357627   0.373642  -0.005275   0.009129  -0.012383  -0.008369
     8  C   -0.025303  -0.006980  -0.020972  -0.022984  -0.012133  -0.025821
     9  C   -0.014776   0.004471   0.008409  -0.007844  -0.012959  -0.002062
    10  O    0.000107  -0.000088   0.000049   0.005862  -0.001674  -0.000073
    11  C   -0.005375  -0.002188   0.402231   0.389155   0.387851   0.006673
    12  C    0.008872  -0.006128  -0.006233  -0.005169   0.006870   0.401567
    13  Sr   0.021833   0.004912   0.005012   0.000357   0.014360  -0.000417
    14  H   -0.000078   0.000001  -0.000000   0.000001  -0.000000  -0.000021
    15  H    0.000047   0.000017   0.000000  -0.000009   0.000001  -0.000015
    16  H    0.000001  -0.000035   0.000000   0.000004   0.000004   0.001858
    17  H   -0.012042  -0.002148  -0.000002   0.000015  -0.000032  -0.000116
    18  H    0.009318  -0.007330  -0.000032   0.000018  -0.000017   0.003826
    19  H    0.691778  -0.016813  -0.001591   0.000393   0.001149   0.000116
    20  H   -0.016813   0.559253   0.000991  -0.000276  -0.000127  -0.000209
    21  H   -0.001591   0.000991   0.560894  -0.018458  -0.024156   0.000049
    22  H    0.000393  -0.000276  -0.018458   0.578314  -0.014889   0.000068
    23  H    0.001149  -0.000127  -0.024156  -0.014889   0.621819  -0.000351
    24  H    0.000116  -0.000209   0.000049   0.000068  -0.000351   0.594961
    25  H   -0.000442  -0.000010  -0.000935   0.005510   0.000163  -0.018506
    26  H    0.000385   0.003195   0.004132  -0.001095   0.000185  -0.019771
    27  H    0.000025  -0.000000   0.000000   0.000000   0.000002   0.000000
              25         26         27
     1  O    0.000000  -0.000000   0.323865
     2  C   -0.000049   0.000002  -0.009237
     3  O    0.000000   0.000000   0.000220
     4  C    0.001685  -0.000386   0.012366
     5  C   -0.000132   0.000069  -0.000987
     6  C   -0.001054  -0.001128  -0.000254
     7  C    0.009864  -0.004766  -0.000021
     8  C   -0.026034  -0.025247   0.000018
     9  C   -0.003475   0.007804  -0.000322
    10  O    0.004458  -0.000003  -0.000020
    11  C   -0.006394  -0.006451  -0.000000
    12  C    0.391480   0.401812   0.000000
    13  Sr   0.000280  -0.000704   0.001151
    14  H    0.000004  -0.000001  -0.000052
    15  H   -0.000038   0.000002  -0.000017
    16  H    0.000008  -0.000036   0.000009
    17  H    0.000023  -0.000026  -0.000038
    18  H   -0.000399   0.000474   0.000012
    19  H   -0.000442   0.000385   0.000025
    20  H   -0.000010   0.003195  -0.000000
    21  H   -0.000935   0.004132   0.000000
    22  H    0.005510  -0.001095   0.000000
    23  H    0.000163   0.000185   0.000002
    24  H   -0.018506  -0.019771   0.000000
    25  H    0.591481  -0.018826  -0.000000
    26  H   -0.018826   0.584153   0.000000
    27  H   -0.000000   0.000000   0.412710
 Mulliken charges:
               1
     1  O   -0.216941
     2  C    0.440033
     3  O   -0.345664
     4  C   -0.481294
     5  C    0.043784
     6  C    0.052853
     7  C    0.021704
     8  C   -0.429025
     9  C    0.205729
    10  O   -0.228925
    11  C    0.002453
    12  C    0.005539
    13  Sr   1.729216
    14  H    0.078940
    15  H    0.068918
    16  H    0.066792
    17  H    0.096835
    18  H    0.076534
    19  H    0.019451
    20  H    0.099172
    21  H    0.095879
    22  H    0.081199
    23  H    0.045381
    24  H    0.063301
    25  H    0.071340
    26  H    0.076226
    27  H    0.260568
 Sum of Mulliken charges =   2.00000
 Mulliken charges with hydrogens summed into heavy atoms:
               1
     1  O    0.043627
     2  C    0.440033
     3  O   -0.345664
     4  C   -0.481294
     5  C    0.258435
     6  C    0.226222
     7  C    0.140328
     8  C   -0.429025
     9  C    0.205729
    10  O   -0.228925
    11  C    0.224912
    12  C    0.216407
    13  Sr   1.729216
 Electronic spatial extent (au):  <R**2>=           2564.2161
 Charge=              2.0000 electrons
 Dipole moment (field-independent basis, Debye):
    X=             20.8434    Y=             -0.6087    Z=              3.9050  Tot=             21.2148
 Quadrupole moment (field-independent basis, Debye-Ang):
   XX=            -14.7494   YY=            -61.5642   ZZ=            -83.6732
   XY=             -1.7469   XZ=             -6.2497   YZ=             -2.4435
 Traceless Quadrupole moment (field-independent basis, Debye-Ang):
   XX=             38.5795   YY=             -8.2353   ZZ=            -30.3443
   XY=             -1.7469   XZ=             -6.2497   YZ=             -2.4435
 Octapole moment (field-independent basis, Debye-Ang**2):
  XXX=            316.3784  YYY=             55.2313  ZZZ=             14.0131  XYY=             46.9953
  XXY=             -9.7964  XXZ=             12.4603  XZZ=             59.6126  YZZ=              5.2023
  YYZ=             -8.7117  XYZ=              0.4512
 Hexadecapole moment (field-independent basis, Debye-Ang**3):
 XXXX=           -990.2498 YYYY=          -1121.0521 ZZZZ=           -477.5537 XXXY=            -33.8565
 XXXZ=             -6.2612 YYYX=             17.7257 YYYZ=            -51.3660 ZZZX=            -14.1341
 ZZZY=             -8.5086 XXYY=           -497.5138 XXZZ=           -338.9971 YYZZ=           -300.1904
 XXYZ=             -0.6019 YYXZ=              0.6362 ZZXY=             -6.6858
 N-N= 8.909166864146D+02 E-N=-3.155360311004D+03  KE= 5.795704181976D+02
   1 Symmetry operations used in ECPInt.
 ECPInt:  NShTT=    7626 NPrTT=   27009 LenC2=    7515 LenP2D=   20879.
 LDataN:  DoStor=T MaxTD1= 7 Len=  274
 D1PCM: PCM CHGder 1st derivatives, ID1Alg=3 FixD1E=F DoIter=F DoCFld=F I1PDM=0.
 Calling FoFJK, ICntrl=      2127 FMM=F ISym2X=0 I1Cent= 0 IOpClX= 0 NMat=1 NMatS=1 NMatT=0.
 Defaulting to unpruned grid for atomic number  38.
 Defaulting to unpruned grid for atomic number  38.
 Defaulting to unpruned grid for atomic number  38.
 Defaulting to unpruned grid for atomic number  38.
 Defaulting to unpruned grid for atomic number  38.
 Defaulting to unpruned grid for atomic number  38.
 Defaulting to unpruned grid for atomic number  38.
 Defaulting to unpruned grid for atomic number  38.
 Defaulting to unpruned grid for atomic number  38.
 Defaulting to unpruned grid for atomic number  38.
 Defaulting to unpruned grid for atomic number  38.
 Defaulting to unpruned grid for atomic number  38.
 Defaulting to unpruned grid for atomic number  38.
 Defaulting to unpruned grid for atomic number  38.
 Defaulting to unpruned grid for atomic number  38.
 Defaulting to unpruned grid for atomic number  38.
 Defaulting to unpruned grid for atomic number  38.
 Defaulting to unpruned grid for atomic number  38.
 Defaulting to unpruned grid for atomic number  38.
 Defaulting to unpruned grid for atomic number  38.
 Defaulting to unpruned grid for atomic number  38.
 Defaulting to unpruned grid for atomic number  38.
 Defaulting to unpruned grid for atomic number  38.
 Defaulting to unpruned grid for atomic number  38.
 ***** Axes restored to original set *****
 -------------------------------------------------------------------
 Center     Atomic                   Forces (Hartrees/Bohr)
 Number     Number              X              Y              Z
 -------------------------------------------------------------------
      1        8          -0.053143657    0.000932949   -0.013944310
      2        6           0.052993126   -0.000777531    0.011357309
      3        8          -0.021694035    0.000682336   -0.008322233
      4        6           0.014119875    0.023534315   -0.035759877
      5        6           0.003419784   -0.009323091   -0.009182407
      6        6          -0.006473156    0.014051892   -0.000836161
      7        6          -0.000656265    0.003937812    0.003744323
      8        6          -0.009974790    0.013082589    0.021164401
      9        6           0.001721912   -0.058474071   -0.007987564
     10        8          -0.001435125    0.029359778    0.007804446
     11        6          -0.004334141   -0.006080326   -0.004973940
     12        6          -0.003731855   -0.000212206   -0.005601404
     13       38           0.013329455    0.003263170    0.009355985
     14        1          -0.003927452   -0.007087449    0.005129068
     15        1          -0.003207303    0.007717820    0.003104884
     16        1           0.007230589    0.000806776    0.006481944
     17        1          -0.003133288   -0.008985874    0.002513456
     18        1           0.012645055   -0.001822971   -0.002145037
     19        1          -0.005420883   -0.000727344    0.003802451
     20        1           0.006476895   -0.005717952   -0.004030863
     21        1           0.006853303   -0.002264124   -0.004772498
     22        1           0.003170940    0.007485091    0.002664418
     23        1          -0.009667257   -0.005655987   -0.003089910
     24        1          -0.000784482   -0.002916543    0.005630577
     25        1           0.003128397    0.007514104    0.002187824
     26        1           0.007058385   -0.002660075   -0.002968036
     27        1          -0.004564026    0.000336912    0.018673155
 -------------------------------------------------------------------
 Cartesian Forces:  Max     0.058474071 RMS     0.014059212

 GradGradGradGradGradGradGradGradGradGradGradGradGradGradGradGradGradGrad
 Berny optimization.
 FormGI is forming the generalized inverse of G from B-inverse, IUseBI=4.
 Internal  Forces:  Max     0.046888445 RMS     0.007005160
 Search for a local minimum.
 Step number   1 out of a maximum of  162
 All quantities printed in internal units (Hartrees-Bohrs-Radians)
 Mixed Optimization -- RFO/linear search
 Second derivative matrix not updated -- first step.
 ITU=  0
     Eigenvalues ---    0.00230   0.00230   0.00368   0.00387   0.00711
     Eigenvalues ---    0.00740   0.01078   0.01186   0.01962   0.02310
     Eigenvalues ---    0.02507   0.02901   0.03287   0.03379   0.03780
     Eigenvalues ---    0.04206   0.04657   0.04685   0.05298   0.05378
     Eigenvalues ---    0.05455   0.05487   0.05545   0.05596   0.05774
     Eigenvalues ---    0.06444   0.06798   0.07095   0.07183   0.07611
     Eigenvalues ---    0.08086   0.08967   0.09692   0.11165   0.11346
     Eigenvalues ---    0.12477   0.14433   0.16000   0.16000   0.16000
     Eigenvalues ---    0.16000   0.16000   0.16000   0.16000   0.16102
     Eigenvalues ---    0.17560   0.23065   0.23408   0.24838   0.24999
     Eigenvalues ---    0.26031   0.27388   0.27773   0.27874   0.28148
     Eigenvalues ---    0.28323   0.29812   0.30559   0.30897   0.32350
     Eigenvalues ---    0.32397   0.32419   0.32428   0.32444   0.32464
     Eigenvalues ---    0.32465   0.32473   0.32476   0.32488   0.32657
     Eigenvalues ---    0.32815   0.53797   0.54338   0.85852   0.94157
 RFO step:  Lambda=-2.99196426D-02 EMin= 2.30000000D-03
 Linear search not attempted -- first point.
 Maximum step size (   0.300) exceeded in Quadratic search.
    -- Step size scaled by   0.868
 Iteration  1 RMS(Cart)=  0.04162282 RMS(Int)=  0.00097231
 Iteration  2 RMS(Cart)=  0.00126155 RMS(Int)=  0.00021948
 Iteration  3 RMS(Cart)=  0.00000146 RMS(Int)=  0.00021948
 Iteration  4 RMS(Cart)=  0.00000000 RMS(Int)=  0.00021948
 Variable       Old X    -DE/DX   Delta X   Delta X   Delta X     New X
                                 (Linear)    (Quad)   (Total)
    R1        2.55725  -0.04689   0.00000  -0.07097  -0.07097   2.48628
    R2        1.82917   0.00129   0.00000   0.00197   0.00197   1.83114
    R3        2.32193  -0.00907   0.00000  -0.00803  -0.00757   2.31436
    R4        2.90348  -0.01623   0.00000  -0.04171  -0.04150   2.86198
    R5        4.79727   0.00109   0.00000   0.00837   0.00880   4.80607
    R6        2.92415  -0.00513   0.00000  -0.01441  -0.01441   2.90974
    R7        2.92707  -0.00004   0.00000  -0.00037  -0.00034   2.92674
    R8        2.84637   0.01705   0.00000   0.04649   0.04674   2.89311
    R9        2.10068  -0.00938   0.00000  -0.02299  -0.02299   2.07769
   R10        2.10084  -0.00889   0.00000  -0.02178  -0.02178   2.07906
   R11        2.10123  -0.00920   0.00000  -0.02256  -0.02256   2.07867
   R12        2.87174   0.00666   0.00000   0.02023   0.01982   2.89156
   R13        2.09981  -0.00911   0.00000  -0.02228  -0.02228   2.07753
   R14        2.10209  -0.00800   0.00000  -0.01965  -0.01965   2.08243
   R15        2.91936  -0.00008   0.00000  -0.00345  -0.00381   2.91556
   R16        2.07721   0.00225   0.00000   0.00742   0.00704   2.08425
   R17        2.10003  -0.00942   0.00000  -0.02306  -0.02306   2.07696
   R18        2.84097   0.01117   0.00000   0.02895   0.02893   2.86991
   R19        2.90677  -0.00453   0.00000  -0.01286  -0.01293   2.89384
   R20        2.91439  -0.00444   0.00000  -0.01230  -0.01230   2.90209
   R21        2.31074  -0.03016   0.00000  -0.02694  -0.02694   2.28380
   R22        2.09988  -0.00861   0.00000  -0.02106  -0.02106   2.07881
   R23        2.10001  -0.00831   0.00000  -0.02033  -0.02033   2.07968
   R24        2.09025  -0.00248   0.00000  -0.01002  -0.00998   2.08027
   R25        2.09657  -0.00635   0.00000  -0.01545  -0.01545   2.08112
   R26        2.10040  -0.00826   0.00000  -0.02024  -0.02024   2.08016
   R27        2.09961  -0.00799   0.00000  -0.01953  -0.01953   2.08008
   R28        4.66193   0.00324   0.00000   0.05742   0.05707   4.71899
   R29        4.95926   0.00865   0.00000   0.10813   0.10818   5.06745
    A1        2.12519  -0.03516   0.00000  -0.16064  -0.16064   1.96455
    A2        2.04578   0.02518   0.00000   0.07135   0.07122   2.11700
    A3        2.06591  -0.02655   0.00000  -0.08899  -0.08912   1.97679
    A4        2.17147   0.00137   0.00000   0.01765   0.01791   2.18938
    A5        2.54430   0.01134   0.00000   0.04866   0.04920   2.59351
    A6        1.91301   0.00275   0.00000   0.00890   0.00949   1.92250
    A7        1.99574  -0.00471   0.00000  -0.03527  -0.03572   1.96002
    A8        1.95035  -0.00430   0.00000  -0.02539  -0.02578   1.92457
    A9        1.89427   0.00437   0.00000   0.04788   0.04772   1.94199
   A10        1.92007  -0.00042   0.00000  -0.00364  -0.00421   1.91586
   A11        1.78624   0.00246   0.00000   0.00941   0.00901   1.79525
   A12        1.92920  -0.00189   0.00000  -0.00987  -0.00994   1.91926
   A13        1.93091   0.00068   0.00000   0.00445   0.00448   1.93539
   A14        1.94063  -0.00422   0.00000  -0.01939  -0.01946   1.92117
   A15        1.89803   0.00068   0.00000   0.00330   0.00331   1.90134
   A16        1.88820   0.00263   0.00000   0.00946   0.00930   1.89750
   A17        1.87522   0.00237   0.00000   0.01320   0.01324   1.88845
   A18        1.82463   0.00049   0.00000   0.00104   0.00115   1.82577
   A19        2.00563   0.00040   0.00000  -0.00441  -0.00462   2.00100
   A20        1.91241  -0.00503   0.00000  -0.03626  -0.03661   1.87581
   A21        2.02709  -0.00226   0.00000  -0.01809  -0.01832   2.00877
   A22        1.82398   0.00641   0.00000   0.05931   0.05971   1.88369
   A23        1.86077   0.00023   0.00000   0.00215   0.00185   1.86262
   A24        1.82171   0.00227   0.00000   0.00481   0.00488   1.82659
   A25        1.83315   0.00061   0.00000   0.01915   0.01875   1.85190
   A26        2.01490  -0.00111   0.00000  -0.00940  -0.00936   2.00553
   A27        1.91088  -0.00085   0.00000  -0.00304  -0.00313   1.90776
   A28        2.00499  -0.00123   0.00000  -0.00623  -0.00623   1.99875
   A29        1.86984   0.00041   0.00000  -0.00287  -0.00268   1.86716
   A30        1.77018   0.00256   0.00000   0.00979   0.00969   1.77987
   A31        1.93688   0.00129   0.00000   0.02319   0.02326   1.96014
   A32        1.96517  -0.00146   0.00000  -0.00786  -0.00795   1.95722
   A33        1.97030  -0.00231   0.00000  -0.00971  -0.01010   1.96020
   A34        1.91172  -0.00179   0.00000  -0.01648  -0.01632   1.89540
   A35        1.90738   0.00157   0.00000   0.00062   0.00056   1.90795
   A36        1.96355  -0.00691   0.00000  -0.02213  -0.02182   1.94172
   A37        2.15705   0.00036   0.00000   0.00268   0.00240   2.15945
   A38        2.15976   0.00671   0.00000   0.02115   0.02089   2.18065
   A39        1.92605  -0.00065   0.00000  -0.00702  -0.00699   1.91906
   A40        1.92627   0.00010   0.00000   0.00814   0.00828   1.93455
   A41        1.94282   0.00251   0.00000   0.00691   0.00656   1.94938
   A42        1.89445   0.00071   0.00000   0.00464   0.00460   1.89905
   A43        1.89625  -0.00140   0.00000  -0.00662  -0.00641   1.88984
   A44        1.87655  -0.00133   0.00000  -0.00621  -0.00624   1.87031
   A45        1.95401   0.00114   0.00000   0.00580   0.00581   1.95983
   A46        1.92598  -0.00195   0.00000  -0.00909  -0.00911   1.91686
   A47        1.92332  -0.00196   0.00000  -0.00938  -0.00940   1.91391
   A48        1.87880   0.00064   0.00000   0.00373   0.00374   1.88254
   A49        1.88751   0.00054   0.00000   0.00282   0.00283   1.89034
   A50        1.89243   0.00174   0.00000   0.00675   0.00669   1.89913
   A51        1.16947  -0.00786   0.00000  -0.04134  -0.04132   1.12815
   A52        1.54752  -0.00596   0.00000  -0.03509  -0.03531   1.51221
   A53        0.99844  -0.00104   0.00000  -0.00778  -0.00784   0.99060
   A54        2.78087   0.00121   0.00000   0.00609   0.00609   2.78697
   A55        2.54559  -0.00193   0.00000  -0.01178  -0.01169   2.53390
    D1       -0.00408  -0.00041   0.00000  -0.00189  -0.00194  -0.00603
    D2       -3.13837   0.00013   0.00000  -0.00270  -0.00264  -3.14101
    D3       -3.12611   0.00023   0.00000   0.00372   0.00383  -3.12228
    D4        0.00769  -0.00046   0.00000   0.00412   0.00418   0.01186
    D5        0.03961   0.00268   0.00000   0.03637   0.03640   0.07602
    D6       -2.09162  -0.00178   0.00000  -0.00797  -0.00737  -2.09900
    D7        2.17280   0.00116   0.00000   0.02087   0.02042   2.19322
    D8       -3.09410   0.00316   0.00000   0.03530   0.03545  -3.05865
    D9        1.05785  -0.00130   0.00000  -0.00905  -0.00832   1.04953
   D10       -0.96091   0.00164   0.00000   0.01980   0.01947  -0.94145
   D11       -0.37208  -0.00107   0.00000  -0.01245  -0.01297  -0.38505
   D12        0.58165  -0.00137   0.00000  -0.01476  -0.01451   0.56715
   D13       -1.07971  -0.00125   0.00000  -0.01246  -0.01270  -1.09240
   D14        1.02372  -0.00120   0.00000  -0.01189  -0.01218   1.01155
   D15        3.10601  -0.00053   0.00000  -0.00501  -0.00535   3.10066
   D16        1.11105  -0.00237   0.00000  -0.01831  -0.01812   1.09293
   D17       -3.06871  -0.00232   0.00000  -0.01775  -0.01760  -3.08631
   D18       -0.98641  -0.00165   0.00000  -0.01087  -0.01078  -0.99719
   D19        3.05233   0.00259   0.00000   0.01587   0.01607   3.06839
   D20       -1.12743   0.00264   0.00000   0.01644   0.01659  -1.11084
   D21        0.95486   0.00331   0.00000   0.02332   0.02341   0.97827
   D22       -1.63039   0.00457   0.00000   0.03273   0.03270  -1.59769
   D23        0.61223   0.00228   0.00000   0.00684   0.00665   0.61888
   D24        2.70634  -0.00088   0.00000  -0.02026  -0.02019   2.68615
   D25        2.51135   0.00096   0.00000   0.00944   0.00993   2.52128
   D26       -1.52921  -0.00132   0.00000  -0.01645  -0.01611  -1.54533
   D27        0.56489  -0.00448   0.00000  -0.04355  -0.04295   0.52194
   D28        0.48179  -0.00153   0.00000  -0.01059  -0.01063   0.47116
   D29        2.72441  -0.00382   0.00000  -0.03648  -0.03668   2.68773
   D30       -1.46467  -0.00698   0.00000  -0.06358  -0.06352  -1.52819
   D31        2.03413  -0.00597   0.00000  -0.03969  -0.04001   1.99412
   D32       -1.18560  -0.00353   0.00000  -0.01533  -0.01562  -1.20123
   D33       -2.11992  -0.00568   0.00000  -0.04813  -0.04800  -2.16792
   D34        0.94353  -0.00324   0.00000  -0.02378  -0.02361   0.91992
   D35       -0.10907   0.00038   0.00000   0.00979   0.00967  -0.09940
   D36        2.95438   0.00281   0.00000   0.03414   0.03406   2.98844
   D37       -0.68350   0.00036   0.00000   0.00372   0.00377  -0.67973
   D38        1.32668   0.00061   0.00000   0.01019   0.01022   1.33690
   D39       -2.90141   0.00092   0.00000   0.01442   0.01435  -2.88706
   D40       -2.91306   0.00103   0.00000   0.02150   0.02156  -2.89150
   D41       -0.90288   0.00128   0.00000   0.02796   0.02801  -0.87487
   D42        1.15222   0.00159   0.00000   0.03220   0.03213   1.18435
   D43        1.32583  -0.00241   0.00000  -0.01193  -0.01177   1.31406
   D44       -2.94717  -0.00216   0.00000  -0.00546  -0.00532  -2.95249
   D45       -0.89208  -0.00185   0.00000  -0.00123  -0.00119  -0.89327
   D46        0.59159   0.00003   0.00000   0.00393   0.00386   0.59545
   D47        2.68881  -0.00065   0.00000   0.00871   0.00860   2.69741
   D48       -1.44997   0.00130   0.00000   0.02106   0.02091  -1.42907
   D49       -1.36328  -0.00141   0.00000  -0.01897  -0.01862  -1.38190
   D50        0.73394  -0.00209   0.00000  -0.01419  -0.01389   0.72005
   D51        2.87834  -0.00014   0.00000  -0.00185  -0.00158   2.87676
   D52        2.81562  -0.00047   0.00000  -0.00870  -0.00863   2.80699
   D53       -1.37034  -0.00114   0.00000  -0.00392  -0.00390  -1.37424
   D54        0.77406   0.00080   0.00000   0.00842   0.00841   0.78247
   D55       -1.82237  -0.00049   0.00000   0.01093   0.01090  -1.81148
   D56        0.12499   0.00204   0.00000   0.02445   0.02435   0.14933
   D57        2.30966   0.00026   0.00000   0.01300   0.01303   2.32269
   D58       -0.29616  -0.00006   0.00000  -0.00854  -0.00833  -0.30449
   D59        2.92372  -0.00216   0.00000  -0.03197  -0.03207   2.89165
   D60       -2.36958  -0.00202   0.00000  -0.03722  -0.03682  -2.40640
   D61        0.85030  -0.00413   0.00000  -0.06065  -0.06057   0.78974
   D62        1.78400  -0.00117   0.00000  -0.01953  -0.01943   1.76457
   D63       -1.27930  -0.00328   0.00000  -0.04296  -0.04318  -1.32248
   D64        1.09401  -0.00063   0.00000  -0.00278  -0.00273   1.09128
   D65       -3.09528  -0.00011   0.00000   0.00371   0.00381  -3.09147
   D66       -1.01295  -0.00010   0.00000   0.00573   0.00574  -1.00721
   D67        3.06773   0.00195   0.00000   0.01799   0.01775   3.08548
   D68       -1.12156   0.00247   0.00000   0.02448   0.02428  -1.09728
   D69        0.96077   0.00249   0.00000   0.02650   0.02622   0.98699
   D70       -1.08342  -0.00078   0.00000  -0.00925  -0.00930  -1.09272
   D71        1.01048  -0.00026   0.00000  -0.00276  -0.00277   1.00771
   D72        3.09281  -0.00024   0.00000  -0.00074  -0.00084   3.09198
   D73        0.99482  -0.00039   0.00000  -0.01372  -0.01368   0.98114
   D74        3.08709  -0.00015   0.00000  -0.01135  -0.01133   3.07575
   D75       -1.10665  -0.00048   0.00000  -0.01472  -0.01466  -1.12131
   D76       -0.96068  -0.00163   0.00000  -0.01153  -0.01159  -0.97227
   D77        1.13159  -0.00140   0.00000  -0.00916  -0.00924   1.12234
   D78       -3.06215  -0.00173   0.00000  -0.01253  -0.01257  -3.07472
   D79       -3.12753   0.00141   0.00000   0.01114   0.01117  -3.11636
   D80       -1.03526   0.00164   0.00000   0.01351   0.01352  -1.02175
   D81        1.05419   0.00131   0.00000   0.01014   0.01019   1.06437
   D82        0.71200   0.00108   0.00000  -0.00637  -0.00651   0.70549
   D83       -1.41237   0.00123   0.00000   0.00241   0.00233  -1.41004
   D84        2.82372   0.00186   0.00000   0.00381   0.00361   2.82733
   D85        1.35663  -0.00134   0.00000  -0.01861  -0.01895   1.33768
   D86       -0.45997  -0.00008   0.00000  -0.00840  -0.00853  -0.46851
   D87       -1.23437   0.00469   0.00000   0.02467   0.02455  -1.20982
   D88       -0.13015  -0.00103   0.00000  -0.00345  -0.00336  -0.13351
         Item               Value     Threshold  Converged?
 Maximum Force            0.046888     0.000450     NO 
 RMS     Force            0.007005     0.000300     NO 
 Maximum Displacement     0.298161     0.001800     NO 
 RMS     Displacement     0.042057     0.001200     NO 
 Predicted change in Energy=-1.660539D-02
 GradGradGradGradGradGradGradGradGradGradGradGradGradGradGradGradGradGrad

                          Input orientation:                          
 ---------------------------------------------------------------------
 Center     Atomic      Atomic             Coordinates (Angstroms)
 Number     Number       Type             X           Y           Z
 ---------------------------------------------------------------------
      1          8           0        0.984166   -0.189104    0.654583
      2          6           0        0.040344   -0.187787    1.571216
      3          8           0        0.313083   -0.190300    2.765166
      4          6           0       -1.358099   -0.192192    0.989805
      5          6           0       -1.294359   -0.306883   -0.544363
      6          6           0       -2.180221    1.045419    1.426955
      7          6           0       -2.905617    0.597684    2.697659
      8          6           0       -3.320822   -0.861417    2.416588
      9          6           0       -2.167193   -1.358600    1.563142
     10          8           0       -1.941986   -2.519078    1.311877
     11          6           0       -3.486308   -1.676628    3.702313
     12          6           0       -4.613021   -0.946700    1.591128
     13         38           0       -0.495229   -0.217141    5.176410
     14          1           0       -0.778572    0.568183   -0.965134
     15          1           0       -0.757300   -1.217924   -0.847673
     16          1           0       -2.310905   -0.352136   -0.962161
     17          1           0       -1.596848    1.972075    1.525038
     18          1           0       -2.939579    1.229587    0.649903
     19          1           0       -2.151420    0.613655    3.502272
     20          1           0       -3.728619    1.252849    3.016104
     21          1           0       -4.292802   -1.249449    4.316493
     22          1           0       -3.732256   -2.724436    3.472648
     23          1           0       -2.562785   -1.683567    4.301388
     24          1           0       -4.538322   -0.396259    0.640206
     25          1           0       -4.837001   -1.998429    1.355758
     26          1           0       -5.450120   -0.526295    2.169167
     27          1           0        1.874290   -0.186776    1.037504
 ---------------------------------------------------------------------
                    Distance matrix (angstroms):
                    1          2          3          4          5
     1  O    0.000000
     2  C    1.315682   0.000000
     3  O    2.214704   1.224707   0.000000
     4  C    2.366134   1.514497   2.438187   0.000000
     5  C    2.577406   2.504254   3.681092   1.539769   0.000000
     6  C    3.483382   2.544114   3.087778   1.548763   2.549424
     7  C    4.463587   3.250311   3.314438   2.436284   3.731635
     8  C    4.699956   3.530703   3.711761   2.517112   3.630604
     9  C    3.481992   2.498817   2.993585   1.530966   2.511877
    10  O    3.797786   3.071125   3.552547   2.420548   2.959536
    11  C    5.611286   4.381266   4.186023   3.753735   4.971428
    12  C    5.725345   4.714886   5.120254   3.394907   3.997900
    13  Sr   4.757764   3.644876   2.543263   4.274672   5.777015
    14  H    2.510819   2.770413   3.960068   2.176192   1.099465
    15  H    2.519513   2.747443   3.905680   2.188473   1.100194
    16  H    3.673953   3.460258   4.561191   2.177980   1.099986
    17  H    3.477071   2.710634   3.140321   2.242215   3.093149
    18  H    4.172347   3.426034   4.131612   2.153617   2.548285
    19  H    4.311108   3.029045   2.695077   2.755219   4.237593
    20  H    5.465013   4.285816   4.298954   3.437063   4.586427
    21  H    6.510017   5.238304   4.974192   4.560387   5.788524
    22  H    6.050953   4.927731   4.825675   4.267714   5.284342
    23  H    5.302214   4.058014   3.586146   3.826493   5.194753
    24  H    5.526391   4.677010   5.300377   3.205883   3.454633
    25  H    6.136065   5.207047   5.637298   3.936899   4.361433
    26  H    6.618740   5.533293   5.803673   4.271670   4.968072
    27  H    0.968997   1.910028   2.328561   3.232745   3.543595
                    6          7          8          9         10
     6  C    0.000000
     7  C    1.530148   0.000000
     8  C    2.432358   1.542846   0.000000
     9  C    2.407909   2.378960   1.518690   0.000000
    10  O    3.574302   3.544458   2.422688   1.208537   0.000000
    11  C    3.780563   2.553239   1.531354   2.533231   2.967969
    12  C    3.148652   2.554362   1.535720   2.480428   3.112039
    13  Sr   4.300194   3.552199   4.001960   4.141750   4.725107
    14  H    2.813266   4.235711   4.465740   3.468853   4.008677
    15  H    3.510179   4.525603   4.165830   2.796358   2.785703
    16  H    2.770941   3.827549   3.563039   2.722275   3.162750
    17  H    1.099380   2.230889   3.434476   3.379370   4.509436
    18  H    1.101976   2.143306   2.763841   2.851192   3.935211
    19  H    2.119950   1.102937   2.173028   2.765911   3.828278
    20  H    2.228443   1.099082   2.235138   3.371768   4.508202
    21  H    4.251923   2.820781   2.169091   3.480096   4.020698
    22  H    4.561302   3.510046   2.180683   2.821549   2.813569
    23  H    3.981970   2.809553   2.191580   2.785693   3.165540
[...]
 Maximum Displacement     0.006838     0.001800     NO 
 RMS     Displacement     0.001118     0.001200     YES
 Predicted change in Energy=-1.228001D-04
 GradGradGradGradGradGradGradGradGradGradGradGradGradGradGradGradGradGrad

                          Input orientation:                          
 ---------------------------------------------------------------------
 Center     Atomic      Atomic             Coordinates (Angstroms)
 Number     Number       Type             X           Y           Z
 ---------------------------------------------------------------------
      1          8           0        0.980169   -0.246785    0.739195
      2          6           0       -0.029451   -0.195315    1.587067
      3          8           0        0.133020   -0.135214    2.794484
      4          6           0       -1.406113   -0.175767    0.948693
      5          6           0       -1.341563   -0.333098   -0.567806
      6          6           0       -2.198935    1.066545    1.443769
      7          6           0       -2.970645    0.596804    2.692272
      8          6           0       -3.349329   -0.861117    2.420408
      9          6           0       -2.180610   -1.366590    1.582703
     10          8           0       -1.893577   -2.517216    1.384412
     11          6           0       -3.538208   -1.713533    3.671998
     12          6           0       -4.597298   -0.942374    1.518977
     13         38           0        0.470321   -0.010438    5.301166
     14          1           0       -0.797633    0.507047   -1.021836
     15          1           0       -0.837167   -1.270735   -0.835750
     16          1           0       -2.361649   -0.351652   -0.977016
     17          1           0       -1.549989    1.931197    1.638672
     18          1           0       -2.898421    1.363765    0.649451
     19          1           0       -2.318882    0.653175    3.570988
     20          1           0       -3.854037    1.219810    2.892960
     21          1           0       -4.347265   -1.304488    4.295728
     22          1           0       -3.802103   -2.744712    3.395727
     23          1           0       -2.613117   -1.747802    4.275382
     24          1           0       -4.490402   -0.329281    0.611275
     25          1           0       -4.786731   -1.981516    1.213475
     26          1           0       -5.470501   -0.574709    2.078186
     27          1           0        1.822616   -0.237653    1.229408
 ---------------------------------------------------------------------
                    Distance matrix (angstroms):
                    1          2          3          4          5
     1  O    0.000000
     2  C    1.319420   0.000000
     3  O    2.225831   1.219781   0.000000
     4  C    2.396513   1.517597   2.403647   0.000000
     5  C    2.665734   2.526677   3.676758   1.526005   0.000000
     6  C    3.511120   2.513859   2.950707   1.554672   2.596251
     7  C    4.487213   3.240301   3.190459   2.466717   3.761214
     8  C    4.684915   3.487024   3.576817   2.532140   3.638592
     9  C    3.457744   2.449364   2.887487   1.555593   2.529188
    10  O    3.718814   2.984502   3.430646   2.431019   2.980981
    11  C    5.582868   4.354687   4.091337   3.785095   4.970593
    12  C    5.674508   4.629034   4.965313   3.331151   3.914804
    13  Sr   4.596453   3.752130   2.532349   4.742610   6.150761
    14  H    2.613441   2.808877   3.980316   2.172434   1.099021
    15  H    2.613739   2.771095   3.925464   2.169537   1.097894
    16  H    3.758207   3.469597   4.527077   2.156928   1.099260
    17  H    3.457508   2.614718   2.904905   2.221726   3.168441
    18  H    4.200640   3.397181   4.004714   2.164875   2.604777
    19  H    4.439901   3.146009   2.690044   2.897709   4.365490
    20  H    5.491735   4.281984   4.212174   3.423469   4.549830
    21  H    6.492242   5.216380   4.867636   4.596414   5.799293
    22  H    6.013894   4.899344   4.759849   4.281146   5.251641
    23  H    5.260169   4.038883   3.512088   3.872339   5.203336
    24  H    5.472688   4.568391   5.116648   3.106486   3.362355
    25  H    6.040809   5.095272   5.487474   3.841798   4.214194
    26  H    6.596330   5.476327   5.666187   4.237234   4.909967
    27  H    0.974736   1.886761   2.305361   3.241500   3.640208
                    6          7          8          9         10
     6  C    0.000000
     7  C    1.541088   0.000000
     8  C    2.448083   1.530636   0.000000
     9  C    2.437167   2.389605   1.524190   0.000000
    10  O    3.597236   3.545094   2.436219   1.202351   0.000000
    11  C    3.806243   2.572867   1.526030   2.515671   2.929807
    12  C    3.129465   2.528179   1.541625   2.454466   3.131828
    13  Sr   4.812933   4.360655   4.859233   4.763775   5.216599
    14  H    2.890656   4.304025   4.498007   3.493817   4.017124
    15  H    3.537442   4.526187   4.132954   2.768201   2.756599
    16  H    2.810330   3.838505   3.574571   2.759535   3.238071
    17  H    1.098518   2.215613   3.412587   3.358007   4.468901
    18  H    1.099346   2.183246   2.879185   2.973389   4.075768
    19  H    2.170327   1.095497   2.163038   2.837577   3.874710
    20  H    2.205222   1.099452   2.192782   3.347625   4.481571
    21  H    4.286115   2.842721   2.170087   3.472572   3.995879
    22  H    4.572304   3.514527   2.168912   2.795625   2.782016
    23  H    4.013742   2.851533   2.183838   2.753708   3.076921
    24  H    2.809305   2.738219   2.204055   2.711977   3.482571
    25  H    4.005046   3.483209   2.185888   2.703022   2.947293
    26  H    3.714746   2.828219   2.167606   3.419936   4.129049
    27  H    4.233173   5.080515   5.343800   4.174342   4.362398
                   11         12         13         14         15
    11  C    0.000000
    12  C    2.520289   0.000000
    13  Sr   4.650056   6.391730   0.000000
    14  H    5.871440   4.795207   6.469610   0.000000
    15  H    5.273660   4.448724   6.399969   1.787931   0.000000
    16  H    4.985213   3.402508   6.895799   1.784802   1.785697
    17  H    4.622930   4.190206   4.611448   3.110071   4.108922
    18  H    4.360606   2.993415   5.905532   2.817884   3.659942
    19  H    2.664257   3.456545   3.348664   4.840411   5.031525
    20  H    3.051418   2.667453   5.100297   5.017496   5.404405
    21  H    1.100422   2.811403   5.088674   6.645151   6.217233
    22  H    1.099680   2.720836   5.418538   6.254249   5.372974
    23  H    1.105007   3.490481   3.684868   6.036625   5.431874
    24  H    3.491540   1.100560   6.834142   4.123474   4.040587
    25  H    2.770372   1.099560   6.944851   5.206003   4.505951
    26  H    2.751529   1.100171   6.782283   5.711044   5.517541
    27  H    6.073129   6.464965   4.296456   3.533891   3.522297
                   16         17         18         19         20
    16  H    0.000000
    17  H    3.565391   0.000000
    18  H    2.424081   1.766014   0.000000
    19  H    4.657880   2.440979   3.062055   0.000000
    20  H    4.435474   2.718078   2.442798   1.771298   0.000000
    21  H    5.714228   5.035311   4.744898   2.910675   2.929695
    22  H    5.188692   5.479359   5.023769   3.711643   3.996612
    23  H    5.440602   4.649463   4.786504   2.519412   3.501099
    24  H    2.656080   3.848549   2.324277   3.800081   2.830323
    25  H    3.651812   5.095745   3.882620   4.311582   3.733507
    26  H    4.364513   4.673665   3.523430   3.697141   2.548943
    27  H    4.731741   4.030617   5.018872   4.840307   6.092289
                   21         22         23         24         25
    21  H    0.000000
    22  H    1.783661   0.000000
    23  H    1.790030   1.783622   0.000000
    24  H    3.814015   3.749831   4.354547   0.000000
    25  H    3.186186   2.512804   3.762246   1.783350   0.000000
    26  H    2.590701   3.037825   3.790575   1.781195   1.787281
    27  H    6.971935   6.528073   5.588759   6.343869   6.835552
                   26         27
    26  H    0.000000
    27  H    7.350073   0.000000
 Stoichiometry    C9H14O3Sr(2+)
 Framework group  C1[X(C9H14O3Sr)]
 Deg. of freedom    75
 Full point group                 C1      NOp   1
 Largest Abelian subgroup         C1      NOp   1
 Largest concise Abelian subgroup C1      NOp   1
                         Standard orientation:                         
 ---------------------------------------------------------------------
 Center     Atomic      Atomic             Coordinates (Angstroms)
 Number     Number       Type             X           Y           Z
 ---------------------------------------------------------------------
      1          8           0       -0.106003    2.940774   -0.336961
      2          6           0       -0.096834    1.650365   -0.061956
      3          8           0        0.931311    0.994526   -0.036255
      4          6           0       -1.453434    1.050752    0.259294
      5          6           0       -2.585675    2.059391    0.087925
      6          6           0       -1.405299    0.351708    1.647107
      7          6           0       -1.014821   -1.111618    1.362229
      8          6           0       -1.668642   -1.461149    0.023128
      9          6           0       -1.633395   -0.136362   -0.729769
     10          8           0       -1.764712    0.010692   -1.915846
     11          6           0       -0.959716   -2.559916   -0.763576
     12          6           0       -3.157404   -1.811288    0.217026
     13         38           0        3.065810   -0.367039    0.017100
     14          1           0       -2.465398    2.899456    0.786259
     15          1           0       -2.601503    2.448618   -0.938537
     16          1           0       -3.547150    1.567951    0.293897
     17          1           0       -0.722299    0.851065    2.347747
     18          1           0       -2.410508    0.401603    2.089404
     19          1           0        0.074277   -1.192027    1.275543
     20          1           0       -1.335528   -1.790638    2.165268
     21          1           0       -0.942471   -3.495554   -0.184601
     22          1           0       -1.483391   -2.749531   -1.711788
     23          1           0        0.081263   -2.274124   -0.999639
     24          1           0       -3.691390   -1.037544    0.789226
     25          1           0       -3.657072   -1.928121   -0.755452
     26          1           0       -3.235762   -2.759367    0.769638
     27          1           0        0.802722    3.246442   -0.512734
 ---------------------------------------------------------------------
 Rotational constants (GHZ):           0.7810431           0.3500784           0.2835040
 Standard basis: def2SVP (5D, 7F)
 There are   275 symmetry adapted cartesian basis functions of A   symmetry.
 There are   261 symmetry adapted basis functions of A   symmetry.
   261 basis functions,   452 primitive gaussians,   275 cartesian basis functions
    50 alpha electrons       50 beta electrons
       nuclear repulsion energy       885.3244272779 Hartrees.
 NAtoms=   27 NActive=   27 NUniq=   27 SFac= 1.00D+00 NAtFMM=   60 NAOKFM=F Big=F
 Integral buffers will be    131072 words long.
 Raffenetti 2 integral format.
 Two-electron integral symmetry is turned on.
 ------------------------------------------------------------------------------
 Polarizable Continuum Model (PCM)
 =================================
 Model                : PCM.
 Atomic radii         : UFF (Universal Force Field).
 Polarization charges : Total charges.
 Charge compensation  : None.
 Solution method      : On-the-fly selection.
 Cavity type          : Scaled VdW (van der Waals Surface) (Alpha=1.100).
 Cavity algorithm     : GePol (No added spheres)
                        Default sphere list used, NSphG=   27.
                        Lebedev-Laikov grids with approx.  5.0 points / Ang**2.
                        Smoothing algorithm: York/Karplus (Gamma=1.0000).
                        Polarization charges: spherical gaussians, with
                                              point-specific exponents (IZeta= 3).
                        Self-potential: point-specific (ISelfS= 7).
                        Self-field    : sphere-specific E.n sum rule (ISelfD= 2).
 1st derivatives      : Analytical E(r).r(x)/FMM algorithm (CHGder, D1EAlg=3).
                        Cavity 1st derivative terms included.
 Solvent              : Water, Eps=  78.355300 Eps(inf)=   1.777849
 ------------------------------------------------------------------------------
 One-electron integrals computed using PRISM.
   1 Symmetry operations used in ECPInt.
 ECPInt:  NShTT=    7626 NPrTT=   27009 LenC2=    7521 LenP2D=   20808.
 LDataN:  DoStor=T MaxTD1= 6 Len=  172
 NBasis=   261 RedAO= T EigKep=  6.94D-04  NBF=   261
 NBsUse=   261 1.00D-06 EigRej= -1.00D+00 NBFU=   261
 Defaulting to unpruned grid for atomic number  38.
 Lowest energy guess from the checkpoint file:  "/home/zzy/proj/be/checkpoint.chk"
 B after Tr=     0.000000   -0.000000    0.000000
         Rot=    0.999991   -0.003738   -0.002134   -0.000238 Ang=  -0.49 deg.
 B after Tr=    -0.000000    0.000000    0.000000
         Rot=    1.000000    0.000025    0.000021   -0.000016 Ang=   0.00 deg.
 Requested convergence on RMS density matrix=1.00D-08 within 128 cycles.
 Requested convergence on MAX density matrix=1.00D-06.
 Requested convergence on             energy=1.00D-06.
 No special actions if energy rises.
 Defaulting to unpruned grid for atomic number  38.
 Defaulting to unpruned grid for atomic number  38.
 Defaulting to unpruned grid for atomic number  38.
 Defaulting to unpruned grid for atomic number  38.
 Defaulting to unpruned grid for atomic number  38.
 Defaulting to unpruned grid for atomic number  38.
 Defaulting to unpruned grid for atomic number  38.
 Defaulting to unpruned grid for atomic number  38.
 Defaulting to unpruned grid for atomic number  38.
 Defaulting to unpruned grid for atomic number  38.
 Defaulting to unpruned grid for atomic number  38.
 Defaulting to unpruned grid for atomic number  38.
 Defaulting to unpruned grid for atomic number  38.
 Defaulting to unpruned grid for atomic number  38.
 Defaulting to unpruned grid for atomic number  38.
 Defaulting to unpruned grid for atomic number  38.
 Defaulting to unpruned grid for atomic number  38.
 Defaulting to unpruned grid for atomic number  38.
 Defaulting to unpruned grid for atomic number  38.
 Defaulting to unpruned grid for atomic number  38.
 Defaulting to unpruned grid for atomic number  38.
 Defaulting to unpruned grid for atomic number  38.
 Defaulting to unpruned grid for atomic number  38.
 Defaulting to unpruned grid for atomic number  38.
 Inv3:  Mode=1 IEnd=    11928108.
 Iteration    1 A*A^-1 deviation from unit magnitude is 3.44D-15 for   1653.
 Iteration    1 A*A^-1 deviation from orthogonality  is 1.94D-15 for   1228    484.
 Iteration    1 A^-1*A deviation from unit magnitude is 3.66D-15 for   1653.
 Iteration    1 A^-1*A deviation from orthogonality  is 1.61D-15 for   1782    373.
 Error on total polarization charges =  0.00894
 SCF Done:  E(RM062X) =  -606.950246359     A.U. after   11 cycles
            NFock= 11  Conv=0.89D-08     -V/T= 2.0467
   1 Symmetry operations used in ECPInt.
 ECPInt:  NShTT=    7626 NPrTT=   27009 LenC2=    7521 LenP2D=   20808.
 LDataN:  DoStor=T MaxTD1= 7 Len=  274
 D1PCM: PCM CHGder 1st derivatives, ID1Alg=3 FixD1E=F DoIter=F DoCFld=F I1PDM=0.
 Calling FoFJK, ICntrl=      2127 FMM=F ISym2X=0 I1Cent= 0 IOpClX= 0 NMat=1 NMatS=1 NMatT=0.
 Defaulting to unpruned grid for atomic number  38.
 Defaulting to unpruned grid for atomic number  38.
 Defaulting to unpruned grid for atomic number  38.
 Defaulting to unpruned grid for atomic number  38.
 Defaulting to unpruned grid for atomic number  38.
 Defaulting to unpruned grid for atomic number  38.
 Defaulting to unpruned grid for atomic number  38.
 Defaulting to unpruned grid for atomic number  38.
 Defaulting to unpruned grid for atomic number  38.
 Defaulting to unpruned grid for atomic number  38.
 Defaulting to unpruned grid for atomic number  38.
 Defaulting to unpruned grid for atomic number  38.
 Defaulting to unpruned grid for atomic number  38.
 Defaulting to unpruned grid for atomic number  38.
 Defaulting to unpruned grid for atomic number  38.
 Defaulting to unpruned grid for atomic number  38.
 Defaulting to unpruned grid for atomic number  38.
 Defaulting to unpruned grid for atomic number  38.
 Defaulting to unpruned grid for atomic number  38.
 Defaulting to unpruned grid for atomic number  38.
 Defaulting to unpruned grid for atomic number  38.
 Defaulting to unpruned grid for atomic number  38.
 Defaulting to unpruned grid for atomic number  38.
 Defaulting to unpruned grid for atomic number  38.
 ***** Axes restored to original set *****
 -------------------------------------------------------------------
 Center     Atomic                   Forces (Hartrees/Bohr)
 Number     Number              X              Y              Z
 -------------------------------------------------------------------
      1        8          -0.005439983   -0.000948186    0.005656552
      2        6           0.002189898    0.005231424   -0.002742711
      3        8           0.000267348   -0.001865088    0.000028413
      4        6           0.000418990    0.000302694    0.000103317
      5        6          -0.001112548    0.000252499   -0.000744380
      6        6           0.000751966   -0.003050837    0.001066320
      7        6           0.000533457    0.003460539   -0.002791656
      8        6          -0.000324327   -0.001761211    0.000092192
      9        6           0.000267337   -0.002125131   -0.002357502
     10        8          -0.000132786    0.001867577    0.001205987
     11        6           0.002062966   -0.000745273    0.001083539
     12        6          -0.000060950   -0.000057641   -0.000094594
     13       38           0.001097160   -0.000519043   -0.000666304
     14        1          -0.000299875   -0.000722308    0.000423728
     15        1          -0.000119252    0.000244312    0.000119221
     16        1           0.000657655   -0.000086669   -0.000056132
     17        1          -0.000129891   -0.000623104    0.000637025
     18        1           0.000450287   -0.000328227   -0.000437036
     19        1           0.000521207    0.000286492    0.001386741
     20        1           0.000423633    0.000003901   -0.000166047
     21        1           0.000450035    0.000096356   -0.000704107
     22        1           0.000427703    0.000354063   -0.000023155
     23        1          -0.002279597    0.001011155   -0.001333951
     24        1          -0.000178282   -0.000367498    0.000307895
     25        1           0.000314999    0.000269707    0.000170815
     26        1           0.000365889   -0.000090494   -0.000158577
     27        1          -0.001123039   -0.000090008   -0.000005592
 -------------------------------------------------------------------
 Cartesian Forces:  Max     0.005656552 RMS     0.001495652

 GradGradGradGradGradGradGradGradGradGradGradGradGradGradGradGradGradGrad
 Berny optimization.
 Using GEDIIS/GDIIS optimizer.
 Bend failed for angle     2 -     3 -    13
 FormBX had a problem.
 Error termination via Lnk1e in /home/zzy/sw/g16/l103.exe at Mon Jul 17 16:24:39 2023.
 Job cpu time:       0 days  4 hours 28 minutes  6.7 seconds.
 Elapsed time:       0 days  0 hours 11 minutes 23.3 seconds.
 File lengths (MBytes):  RWF=    171 Int=      0 D2E=      0 Chk=     19 Scr=      1
