 Entering Gaussian System, Link 0=g16
 Initial command:
 /home/pub/g16/l1.exe "/home/zz1/gauss/SCRDIR/Gau-3238142.inp" -scrdir="/home/zz1/gauss/SCRDIR/"
 Entering Link 1 = /home/pub/g16/l1.exe PID=   3238144.
  
 Copyright (c) 1988,1990,1992,1993,1995,1998,2003,2009,2016,
            Gaussian, Inc.  All Rights Reserved.
  
 This is part of the Gaussian(R) 16 program.  It is based on
 the Gaussian(R) 09 system (copyright 2009, Gaussian, Inc.),
 the Gaussian(R) 03 system (copyright 2003, Gaussian, Inc.),
 the Gaussian(R) 98 system (copyright 1998, Gaussian, Inc.),
 the Gaussian(R) 94 system (copyright 1995, Gaussian, Inc.),
 the Gaussian 92(TM) system (copyright 1992, Gaussian, Inc.),
 the Gaussian 90(TM) system (copyright 1990, Gaussian, Inc.),
 the Gaussian 88(TM) system (copyright 1988, Gaussian, Inc.),
 the Gaussian 86(TM) system (copyright 1986, Carnegie Mellon
 University), and the Gaussian 82(TM) system (copyright 1983,
 Carnegie Mellon University). Gaussian is a federally registered
 trademark of Gaussian, Inc.
  
 This software contains proprietary and confidential information,
 including trade secrets, belonging to Gaussian, Inc.
  
 This software is provided under written license and may be
 used, copied, transmitted, or stored only in accord with that
 written license.
  
 The following legend is applicable only to US Government
 contracts under FAR:
  
                    RESTRICTED RIGHTS LEGEND
  
 Use, reproduction and disclosure by the US Government is
 subject to restrictions as set forth in subparagraphs (a)
 and (c) of the Commercial Computer Software - Restricted
 Rights clause in FAR 52.227-19.
  
 Gaussian, Inc.
 340 Quinnipiac St., Bldg. 40, Wallingford CT 06492
  
  
 ---------------------------------------------------------------
 Warning -- This program may not be used in any manner that
 competes with the business of Gaussian, Inc. or will provide
 assistance to any competitor of Gaussian, Inc.  The licensee
 of this program is prohibited from giving any competitor of
 Gaussian, Inc. access to this program.  By using this program,
 the user acknowledges that Gaussian, Inc. is engaged in the
 business of creating and licensing software in the field of
 computational chemistry and represents and warrants to the
 licensee that it is not a competitor of Gaussian, Inc. and that
 it will not use this program in any manner prohibited above.
 ---------------------------------------------------------------
  

 Cite this work as:
 Gaussian 16, Revision A.03,
 M. J. Frisch, G. W. Trucks, H. B. Schlegel, G. E. Scuseria, 
 M. A. Robb, J. R. Cheeseman, G. Scalmani, V. Barone, 
 G. A. Petersson, H. Nakatsuji, X. Li, M. Caricato, A. V. Marenich, 
 J. Bloino, B. G. Janesko, R. Gomperts, B. Mennucci, H. P. Hratchian, 
 J. V. Ortiz, A. F. Izmaylov, J. L. Sonnenberg, D. Williams-Young, 
 F. Ding, F. Lipparini, F. Egidi, J. Goings, B. Peng, A. Petrone, 
 T. Henderson, D. Ranasinghe, V. G. Zakrzewski, J. Gao, N. Rega, 
 G. Zheng, W. Liang, M. Hada, M. Ehara, K. Toyota, R. Fukuda, 
 J. Hasegawa, M. Ishida, T. Nakajima, Y. Honda, O. Kitao, H. Nakai, 
 T. Vreven, K. Throssell, J. A. Montgomery, Jr., J. E. Peralta, 
 F. Ogliaro, M. J. Bearpark, J. J. Heyd, E. N. Brothers, K. N. Kudin, 
 V. N. Staroverov, T. A. Keith, R. Kobayashi, J. Normand, 
 K. Raghavachari, A. P. Rendell, J. C. Burant, S. S. Iyengar, 
 J. Tomasi, M. Cossi, J. M. Millam, M. Klene, C. Adamo, R. Cammi, 
 J. W. Ochterski, R. L. Martin, K. Morokuma, O. Farkas, 
 J. B. Foresman, and D. J. Fox, Gaussian, Inc., Wallingford CT, 2016.
 
 ******************************************
 Gaussian 16:  ES64L-G16RevA.03 25-Dec-2016
                12-Apr-2023 
 ******************************************
 %chk=/home/zz1/proj/gauss/new/chk/Cs-VOHSAM-5/0.chk
 %CPU=0-48
 SetSPE:  set environment variable "MP_BIND" = "yes"
 SetSPE:  set environment variable "MP_BLIST" = "0,1,2,3,4,5,6,7,8,9,10,11,12,13,14,15,16,17,18,19,20,21,22,23,24,25,26,27,28,29,30,31,32,33,34,35,36,37,38,39,40,41,42,43,44,45,46,47,48"
 Will use up to   49 processors via shared memory.
 ----------------------------------------------------
 # M062X/Def2SVP opt(MaxCyc=10)/freq SCRF pop(Always)
 ----------------------------------------------------
 1/6=10,18=20,19=15,26=3,38=1/1,3;
 2/9=110,12=2,17=6,18=5,40=1/2;
 3/5=43,7=101,11=2,25=1,30=1,70=2201,71=1,74=-55/1,2,3;
 4//1;
 5/5=2,38=5/2;
 6/7=2,8=2,9=2,10=2,28=1/1;
 7//1,2,3,16;
 1/6=10,18=20,19=15,26=3/3(2);
 2/9=110/2;
 99//99;
 2/9=110/2;
 3/5=43,7=101,11=2,25=1,30=1,70=2205,71=1,74=-55/1,2,3;
 4/5=5,16=3,69=1/1;
 5/5=2,38=5/2;
 6/7=2,8=2,9=2,10=2,28=1/1;
 7//1,2,3,16;
 1/6=10,18=20,19=15,26=3/3(-6);
 2/9=110/2;
 6/7=2,8=2,9=2,10=2,19=2,28=1/1;
 99/9=1/99;
 -----------
 Cs-VOHSAM-5
 -----------
 Symbolic Z-matrix:
 Charge =  0 Multiplicity = 2
 O                    -2.167     3.5214    6.5762 
 O                    -0.8988    2.2372    7.9087 
 C                    -1.0401    3.0551    7.0226 
 C                     0.1693    3.7039    6.303 
 O                     1.2962    3.2376    6.7494 
 O                     0.0279    4.5218    5.4168 
 Cs                    1.8518    0.2041    6.4902 
 

 GradGradGradGradGradGradGradGradGradGradGradGradGradGradGradGradGradGrad
 Berny optimization.
 Initialization pass.
                           ----------------------------
                           !    Initial Parameters    !
                           ! (Angstroms and Degrees)  !
 --------------------------                            --------------------------
 ! Name  Definition              Value          Derivative Info.                !
 --------------------------------------------------------------------------------
 ! R1    R(1,3)                  1.2987         estimate D2E/DX2                !
 ! R2    R(2,3)                  1.2141         estimate D2E/DX2                !
 ! R3    R(3,4)                  1.5496         estimate D2E/DX2                !
 ! R4    R(4,5)                  1.2987         estimate D2E/DX2                !
 ! R5    R(4,6)                  1.2142         estimate D2E/DX2                !
 ! R6    R(5,7)                  3.0948         estimate D2E/DX2                !
 ! A1    A(1,3,2)              126.4218         estimate D2E/DX2                !
 ! A2    A(1,3,4)              111.5464         estimate D2E/DX2                !
 ! A3    A(2,3,4)              122.0135         estimate D2E/DX2                !
 ! A4    A(3,4,5)              111.5464         estimate D2E/DX2                !
 ! A5    A(3,4,6)              122.0093         estimate D2E/DX2                !
 ! A6    A(5,4,6)              126.4259         estimate D2E/DX2                !
 ! A7    A(4,5,7)              118.6152         estimate D2E/DX2                !
 ! D1    D(1,3,4,5)            180.0            estimate D2E/DX2                !
 ! D2    D(1,3,4,6)             -1.468          estimate D2E/DX2                !
 ! D3    D(2,3,4,5)              1.4642         estimate D2E/DX2                !
 ! D4    D(2,3,4,6)            179.9962         estimate D2E/DX2                !
 ! D5    D(3,4,5,7)             60.0802         estimate D2E/DX2                !
 ! D6    D(6,4,5,7)           -118.3727         estimate D2E/DX2                !
 --------------------------------------------------------------------------------
 Trust Radius=3.00D-01 FncErr=1.00D-07 GrdErr=1.00D-06 EigMax=2.50D+02 EigMin=1.00D-04
 Number of steps in this run=     10 maximum allowed number of steps=    100.
 GradGradGradGradGradGradGradGradGradGradGradGradGradGradGradGradGradGrad

                          Input orientation:                          
 ---------------------------------------------------------------------
 Center     Atomic      Atomic             Coordinates (Angstroms)
 Number     Number       Type             X           Y           Z
 ---------------------------------------------------------------------
      1          8           0       -2.167000    3.521400    6.576200
      2          8           0       -0.898800    2.237200    7.908700
      3          6           0       -1.040100    3.055100    7.022600
      4          6           0        0.169300    3.703900    6.303000
      5          8           0        1.296200    3.237600    6.749400
      6          8           0        0.027900    4.521800    5.416800
      7         55           0        1.851800    0.204100    6.490200
 ---------------------------------------------------------------------
                    Distance matrix (angstroms):
                    1          2          3          4          5
     1  O    0.000000
     2  O    2.243448   0.000000
     3  C    1.298696   1.214125   0.000000
     4  C    2.359288   2.422874   1.549650   0.000000
     5  O    3.479123   2.676341   2.359288   1.298696   0.000000
     6  O    2.676302   3.505387   2.422896   1.214210   2.243564
     7  Cs   5.211778   3.702896   4.095697   3.887731   3.094834
                    6          7
     6  O    0.000000
     7  Cs   4.808465   0.000000
 Stoichiometry    C2CsO4(2)
 Framework group  C1[X(C2CsO4)]
 Deg. of freedom    15
 Full point group                 C1      NOp   1
 Largest Abelian subgroup         C1      NOp   1
 Largest concise Abelian subgroup C1      NOp   1
                         Standard orientation:                         
 ---------------------------------------------------------------------
 Center     Atomic      Atomic             Coordinates (Angstroms)
 Number     Number       Type             X           Y           Z
 ---------------------------------------------------------------------
      1          8           0       -3.350627   -1.011786   -0.629374
      2          8           0       -1.568960   -1.527052    0.632855
      3          6           0       -2.292967   -0.731288    0.070119
      4          6           0       -2.053297    0.797562    0.151291
      5          8           0       -0.995638    1.078060    0.850783
      6          8           0       -2.777366    1.593311   -0.411572
      7         55           0        1.738515   -0.026508   -0.088545
 ---------------------------------------------------------------------
 Rotational constants (GHZ):           3.2524856           0.5648240           0.5087420
 Standard basis: def2SVP (5D, 7F)
 There are   116 symmetry adapted cartesian basis functions of A   symmetry.
 There are   108 symmetry adapted basis functions of A   symmetry.
   108 basis functions,   187 primitive gaussians,   116 cartesian basis functions
    27 alpha electrons       26 beta electrons
       nuclear repulsion energy       262.8081610248 Hartrees.
 NAtoms=    7 NActive=    7 NUniq=    7 SFac= 1.00D+00 NAtFMM=   60 NAOKFM=F Big=F
 Integral buffers will be    131072 words long.
 Raffenetti 2 integral format.
 Two-electron integral symmetry is turned on.
 ------------------------------------------------------------------------------
 Polarizable Continuum Model (PCM)
 =================================
 Model                : PCM.
 Atomic radii         : UFF (Universal Force Field).
 Polarization charges : Total charges.
 Charge compensation  : None.
 Solution method      : On-the-fly selection.
 Cavity type          : Scaled VdW (van der Waals Surface) (Alpha=1.100).
 Cavity algorithm     : GePol (No added spheres)
                        Default sphere list used, NSphG=    7.
                        Lebedev-Laikov grids with approx.  5.0 points / Ang**2.
                        Smoothing algorithm: York/Karplus (Gamma=1.0000).
                        Polarization charges: spherical gaussians, with
                                              point-specific exponents (IZeta= 3).
                        Self-potential: point-specific (ISelfS= 7).
                        Self-field    : sphere-specific E.n sum rule (ISelfD= 2).
 1st derivatives      : Analytical E(r).r(x)/FMM algorithm (CHGder, D1EAlg=3).
                        Cavity 1st derivative terms included.
 Solvent              : Water, Eps=  78.355300 Eps(inf)=   1.777849
 ------------------------------------------------------------------------------
 Spheres list:
 ISph  on   Nord     Re0    Alpha      Xe            Ye            Ze
    1   O      1    1.7500  1.100     -3.350627     -1.011786     -0.629374
    2   O      2    1.7500  1.100     -1.568960     -1.527052      0.632855
    3   C      3    1.9255  1.100     -2.292967     -0.731288      0.070119
    4   C      4    1.9255  1.100     -2.053297      0.797562      0.151291
    5   O      5    1.7500  1.100     -0.995638      1.078060      0.850783
    6   O      6    1.7500  1.100     -2.777366      1.593311     -0.411572
    7  Cs      7    2.2585  1.100      1.738515     -0.026508     -0.088545
 ------------------------------------------------------------------------------
 One-electron integrals computed using PRISM.
 PrsmSu:  requested number of processors reduced to:  30 ShMem   1 Linda.
   1 Symmetry operations used in ECPInt.
 ECPInt:  NShTT=    1081 NPrTT=    3915 LenC2=    1068 LenP2D=    3152.
 LDataN:  DoStor=T MaxTD1= 6 Len=  172
 Number of processors reduced to  40 by ecpmxn.
 NBasis=   108 RedAO= T EigKep=  4.17D-03  NBF=   108
 NBsUse=   108 1.00D-06 EigRej= -1.00D+00 NBFU=   108
 Defaulting to unpruned grid for atomic number  55.
 ExpMin= 1.20D-02 ExpMax= 2.27D+03 ExpMxC= 3.41D+02 IAcc=3 IRadAn=         5 AccDes= 0.00D+00
 Harris functional with IExCor= 1009 and IRadAn=       5 diagonalized for initial guess.
 HarFok:  IExCor= 1009 AccDes= 0.00D+00 IRadAn=         5 IDoV= 1 UseB2=F ITyADJ=14
 ICtDFT=  3500011 ScaDFX=  1.000000  1.000000  1.000000  1.000000
 Defaulting to unpruned grid for atomic number  55.
 FoFCou: FMM=F IPFlag=           0 FMFlag=      100000 FMFlg1=           0
         NFxFlg=           0 DoJE=T BraDBF=F KetDBF=T FulRan=T
         wScrn=  0.000000 ICntrl=       500 IOpCl=  0 I1Cent=   200000004 NGrid=           0
         NMat0=    1 NMatS0=      1 NMatT0=    0 NMatD0=    1 NMtDS0=    0 NMtDT0=    0
 Petite list used in FoFCou.
 Initial guess <Sx>= 0.0000 <Sy>= 0.0000 <Sz>= 0.5000 <S**2>= 0.7500 S= 0.5000
 Keep R1 and R2 ints in memory in canonical form, NReq=80840190.
 Requested convergence on RMS density matrix=1.00D-08 within 128 cycles.
 Requested convergence on MAX density matrix=1.00D-06.
 Requested convergence on             energy=1.00D-06.
 No special actions if energy rises.
 Defaulting to unpruned grid for atomic number  55.
 Defaulting to unpruned grid for atomic number  55.
 Defaulting to unpruned grid for atomic number  55.
 Defaulting to unpruned grid for atomic number  55.
 Defaulting to unpruned grid for atomic number  55.
 Defaulting to unpruned grid for atomic number  55.
 Defaulting to unpruned grid for atomic number  55.
 Defaulting to unpruned grid for atomic number  55.
 Defaulting to unpruned grid for atomic number  55.
 Defaulting to unpruned grid for atomic number  55.
 Defaulting to unpruned grid for atomic number  55.
 Defaulting to unpruned grid for atomic number  55.
 Defaulting to unpruned grid for atomic number  55.
 Defaulting to unpruned grid for atomic number  55.
 Defaulting to unpruned grid for atomic number  55.
 Defaulting to unpruned grid for atomic number  55.
 Defaulting to unpruned grid for atomic number  55.
 Defaulting to unpruned grid for atomic number  55.
 Defaulting to unpruned grid for atomic number  55.
 Defaulting to unpruned grid for atomic number  55.
 Defaulting to unpruned grid for atomic number  55.
 Defaulting to unpruned grid for atomic number  55.
 Defaulting to unpruned grid for atomic number  55.
 Defaulting to unpruned grid for atomic number  55.
 Defaulting to unpruned grid for atomic number  55.
 Defaulting to unpruned grid for atomic number  55.
 Defaulting to unpruned grid for atomic number  55.
 Defaulting to unpruned grid for atomic number  55.
 Defaulting to unpruned grid for atomic number  55.
 Defaulting to unpruned grid for atomic number  55.
 Defaulting to unpruned grid for atomic number  55.
 Defaulting to unpruned grid for atomic number  55.
 Defaulting to unpruned grid for atomic number  55.
 Defaulting to unpruned grid for atomic number  55.
 Defaulting to unpruned grid for atomic number  55.
 Defaulting to unpruned grid for atomic number  55.
 Defaulting to unpruned grid for atomic number  55.
 Defaulting to unpruned grid for atomic number  55.
 Defaulting to unpruned grid for atomic number  55.
 Defaulting to unpruned grid for atomic number  55.
 Defaulting to unpruned grid for atomic number  55.
 Defaulting to unpruned grid for atomic number  55.
 Defaulting to unpruned grid for atomic number  55.
 Defaulting to unpruned grid for atomic number  55.
 Defaulting to unpruned grid for atomic number  55.
 Defaulting to unpruned grid for atomic number  55.
 Defaulting to unpruned grid for atomic number  55.
 Defaulting to unpruned grid for atomic number  55.
 Defaulting to unpruned grid for atomic number  55.
 CoulSu:  requested number of processors reduced to:  32 ShMem   1 Linda.
 Inv3:  Mode=1 IEnd=     4057707.
 Iteration    1 A*A^-1 deviation from unit magnitude is 2.44D-15 for    387.
 Iteration    1 A*A^-1 deviation from orthogonality  is 1.38D-15 for    685    126.
 Iteration    1 A^-1*A deviation from unit magnitude is 2.78D-15 for    209.
 Iteration    1 A^-1*A deviation from orthogonality  is 2.08D-15 for    725    267.
 CoulSu:  requested number of processors reduced to:  32 ShMem   1 Linda.
 CoulSu:  requested number of processors reduced to:  32 ShMem   1 Linda.
 CoulSu:  requested number of processors reduced to:  33 ShMem   1 Linda.
 CoulSu:  requested number of processors reduced to:  31 ShMem   1 Linda.
 Error on total polarization charges =  0.00655
 SCF Done:  E(UM062X) =  -396.824807730     A.U. after   27 cycles
            NFock= 27  Conv=0.46D-08     -V/T= 2.0454
 <Sx>= 0.0000 <Sy>= 0.0000 <Sz>= 0.5000 <S**2>= 0.7617 S= 0.5058
 <L.S>=  0.00000000000    
 Annihilation of the first spin contaminant:
 S**2 before annihilation     0.7617,   after     0.7501

 **********************************************************************

            Population analysis using the SCF density.

 **********************************************************************

 Orbital symmetries:
 Alpha Orbitals:
       Occupied  (A) (A) (A) (A) (A) (A) (A) (A) (A) (A) (A) (A)
                 (A) (A) (A) (A) (A) (A) (A) (A) (A) (A) (A) (A)
                 (A) (A) (A)
       Virtual   (A) (A) (A) (A) (A) (A) (A) (A) (A) (A) (A) (A)
                 (A) (A) (A) (A) (A) (A) (A) (A) (A) (A) (A) (A)
                 (A) (A) (A) (A) (A) (A) (A) (A) (A) (A) (A) (A)
                 (A) (A) (A) (A) (A) (A) (A) (A) (A) (A) (A) (A)
                 (A) (A) (A) (A) (A) (A) (A) (A) (A) (A) (A) (A)
                 (A) (A) (A) (A) (A) (A) (A) (A) (A) (A) (A) (A)
                 (A) (A) (A) (A) (A) (A) (A) (A) (A)
 Beta  Orbitals:
       Occupied  (A) (A) (A) (A) (A) (A) (A) (A) (A) (A) (A) (A)
                 (A) (A) (A) (A) (A) (A) (A) (A) (A) (A) (A) (A)
                 (A) (A)
       Virtual   (A) (A) (A) (A) (A) (A) (A) (A) (A) (A) (A) (A)
                 (A) (A) (A) (A) (A) (A) (A) (A) (A) (A) (A) (A)
                 (A) (A) (A) (A) (A) (A) (A) (A) (A) (A) (A) (A)
                 (A) (A) (A) (A) (A) (A) (A) (A) (A) (A) (A) (A)
                 (A) (A) (A) (A) (A) (A) (A) (A) (A) (A) (A) (A)
                 (A) (A) (A) (A) (A) (A) (A) (A) (A) (A) (A) (A)
                 (A) (A) (A) (A) (A) (A) (A) (A) (A) (A)
 The electronic state is 2-A.
 Alpha  occ. eigenvalues --  -19.68860 -19.62595 -19.62568 -19.60449 -10.68756
 Alpha  occ. eigenvalues --  -10.67475  -1.21317  -1.16311  -1.11643  -1.10808
 Alpha  occ. eigenvalues --   -1.07015  -0.74162  -0.60083  -0.57785  -0.56271
 Alpha  occ. eigenvalues --   -0.56171  -0.55461  -0.55215  -0.54509  -0.51067
 Alpha  occ. eigenvalues --   -0.48225  -0.45546  -0.39552  -0.38724  -0.36227
 Alpha  occ. eigenvalues --   -0.34961  -0.32185
 Alpha virt. eigenvalues --   -0.01207   0.00716   0.01385   0.01469   0.02139
 Alpha virt. eigenvalues --    0.04988   0.05796   0.05969   0.06334   0.07031
 Alpha virt. eigenvalues --    0.08424   0.16171   0.19554   0.19788   0.20047
 Alpha virt. eigenvalues --    0.20063   0.21256   0.27918   0.29372   0.32542
 Alpha virt. eigenvalues --    0.32943   0.33809   0.40313   0.41183   0.51352
 Alpha virt. eigenvalues --    0.53301   0.56685   0.58535   0.60475   0.63004
 Alpha virt. eigenvalues --    0.66828   0.68747   0.70971   0.75317   0.94206
 Alpha virt. eigenvalues --    0.98361   1.02608   1.05342   1.06395   1.11270
 Alpha virt. eigenvalues --    1.12054   1.13336   1.19049   1.23370   1.26589
 Alpha virt. eigenvalues --    1.33297   1.36494   1.45733   1.52779   1.60050
 Alpha virt. eigenvalues --    1.67566   1.70053   1.70864   1.75056   2.00644
 Alpha virt. eigenvalues --    2.01527   2.02213   2.23410   2.27847   2.35198
 Alpha virt. eigenvalues --    2.64949   2.68882   2.70955   2.71407   2.73862
 Alpha virt. eigenvalues --    2.75192   2.77810   2.79988   2.94181   2.97716
 Alpha virt. eigenvalues --    3.05351   3.22581   3.24173   3.31513   3.31857
 Alpha virt. eigenvalues --    3.41848   3.59001   3.61026   3.74274   3.78863
 Alpha virt. eigenvalues --   19.75976
  Beta  occ. eigenvalues --  -19.67533 -19.62554 -19.61902 -19.60452 -10.68752
  Beta  occ. eigenvalues --  -10.67405  -1.19642  -1.15484  -1.10837  -1.09124
  Beta  occ. eigenvalues --   -1.05503  -0.71511  -0.58051  -0.57167  -0.56235
  Beta  occ. eigenvalues --   -0.56137  -0.54850  -0.54077  -0.53302  -0.49814
  Beta  occ. eigenvalues --   -0.47577  -0.39916  -0.37289  -0.34225  -0.31759
  Beta  occ. eigenvalues --   -0.31697
  Beta virt. eigenvalues --   -0.14478  -0.01204   0.00992   0.01443   0.01456
  Beta virt. eigenvalues --    0.02175   0.04975   0.05805   0.05995   0.06400
  Beta virt. eigenvalues --    0.07060   0.08439   0.16384   0.19527   0.19766
  Beta virt. eigenvalues --    0.20050   0.20062   0.21319   0.28387   0.29562
  Beta virt. eigenvalues --    0.32680   0.33012   0.34128   0.40708   0.42843
  Beta virt. eigenvalues --    0.51414   0.53691   0.56870   0.58723   0.60596
  Beta virt. eigenvalues --    0.63075   0.67634   0.68921   0.71233   0.75747
  Beta virt. eigenvalues --    0.95106   0.98826   1.03733   1.06505   1.07672
  Beta virt. eigenvalues --    1.11732   1.13054   1.13999   1.19595   1.24987
  Beta virt. eigenvalues --    1.27573   1.34618   1.37354   1.45133   1.53159
  Beta virt. eigenvalues --    1.60313   1.68320   1.70361   1.71457   1.75993
  Beta virt. eigenvalues --    2.00713   2.01466   2.02385   2.23992   2.28877
  Beta virt. eigenvalues --    2.33949   2.69095   2.71325   2.71582   2.72388
  Beta virt. eigenvalues --    2.74559   2.76676   2.78080   2.80775   2.95730
  Beta virt. eigenvalues --    2.98209   3.05746   3.23334   3.24536   3.32159
  Beta virt. eigenvalues --    3.32776   3.42480   3.59221   3.61587   3.74474
  Beta virt. eigenvalues --    3.79230  19.75974
          Condensed to atoms (all electrons):
               1          2          3          4          5          6
     1  O    7.931721  -0.078747   0.442293  -0.077203   0.001375  -0.001712
     2  O   -0.078747   7.799054   0.639951  -0.094057  -0.001418   0.000993
     3  C    0.442293   0.639951   4.896015   0.031491  -0.100689  -0.107570
     4  C   -0.077203  -0.094057   0.031491   4.799110   0.487327   0.675719
     5  O    0.001375  -0.001418  -0.100689   0.487327   8.027725  -0.087523
     6  O   -0.001712   0.000993  -0.107570   0.675719  -0.087523   7.841292
     7  Cs   0.003205   0.034380   0.005669  -0.007058   0.057181   0.007129
               7
     1  O    0.003205
     2  O    0.034380
     3  C    0.005669
     4  C   -0.007058
     5  O    0.057181
     6  O    0.007129
     7  Cs   8.043607
          Atomic-Atomic Spin Densities.
               1          2          3          4          5          6
     1  O    0.731105   0.003295  -0.062407  -0.017400   0.001096   0.006285
     2  O    0.003295  -0.008082   0.001567   0.002456   0.005372   0.000332
     3  C   -0.062407   0.001567  -0.084718   0.135599  -0.011306   0.010512
     4  C   -0.017400   0.002456   0.135599  -0.017019  -0.057746  -0.005882
     5  O    0.001096   0.005372  -0.011306  -0.057746   0.364030   0.005406
     6  O    0.006285   0.000332   0.010512  -0.005882   0.005406  -0.016141
     7  Cs  -0.001251  -0.000685   0.001173   0.002479  -0.003124   0.000328
               7
     1  O   -0.001251
     2  O   -0.000685
     3  C    0.001173
     4  C    0.002479
     5  O   -0.003124
     6  O    0.000328
     7  Cs  -0.001377
 Mulliken charges and spin densities:
               1          2
     1  O   -0.220932   0.660723
     2  O   -0.300157   0.004255
     3  C    0.192839  -0.009579
     4  C    0.184670   0.042488
     5  O   -0.383978   0.303729
     6  O   -0.328328   0.000841
     7  Cs   0.855886  -0.002456
 Sum of Mulliken charges =  -0.00000   1.00000
 Mulliken charges and spin densities with hydrogens summed into heavy atoms:
               1          2
     1  O   -0.220932   0.660723
     2  O   -0.300157   0.004255
     3  C    0.192839  -0.009579
     4  C    0.184670   0.042488
     5  O   -0.383978   0.303729
     6  O   -0.328328   0.000841
     7  Cs   0.855886  -0.002456
 Electronic spatial extent (au):  <R**2>=           1346.4599
 Charge=             -0.0000 electrons
 Dipole moment (field-independent basis, Debye):
    X=             16.6247    Y=             -1.6382    Z=             -1.6018  Tot=             16.7818
 Quadrupole moment (field-independent basis, Debye-Ang):
   XX=            -59.4509   YY=            -63.3828   ZZ=            -53.0425
   XY=              3.3443   XZ=             -4.2583   YZ=              0.9599
 Traceless Quadrupole moment (field-independent basis, Debye-Ang):
   XX=             -0.8255   YY=             -4.7574   ZZ=              5.5829
   XY=              3.3443   XZ=             -4.2583   YZ=              0.9599
 Octapole moment (field-independent basis, Debye-Ang**2):
  XXX=            223.7654  YYY=             -7.7897  ZZZ=             -8.9048  XYY=             68.8932
  XXY=            -11.0957  XXZ=             16.1035  XZZ=             46.5876  YZZ=             -1.6793
  YYZ=             -4.7060  XYZ=             -3.2741
 Hexadecapole moment (field-independent basis, Debye-Ang**3):
 XXXX=          -1608.6596 YYYY=           -363.5558 ZZZZ=           -114.2798 XXXY=             24.4520
 XXXZ=            -78.1443 YYYX=             16.9112 YYYZ=              7.2485 ZZZX=             -8.2897
 ZZZY=             -1.5340 XXYY=           -351.9097 XXZZ=           -260.7914 YYZZ=            -78.9411
 XXYZ=              6.4390 YYXZ=             -5.9454 ZZXY=             -0.7499
 N-N= 2.628081610248D+02 E-N=-1.454573931792D+03  KE= 3.795800367747D+02
                          Isotropic Fermi Contact Couplings
        Atom                 a.u.       MegaHertz       Gauss      10(-4) cm-1
     1  O(17)              0.15974     -96.83078     -34.55163     -32.29927
     2  O(17)             -0.01401       8.49320       3.03058       2.83303
     3  C(13)             -0.01585     -17.81660      -6.35740      -5.94298
     4  C(13)              0.02934      32.98875      11.77121      11.00386
     5  O(17)              0.09471     -57.41521     -20.48718     -19.15165
     6  O(17)             -0.01521       9.21773       3.28912       3.07471
 --------------------------------------------------------
       Center         ----  Spin Dipole Couplings  ----
                      3XX-RR        3YY-RR        3ZZ-RR
 --------------------------------------------------------
     1   Atom       -1.238499      2.387270     -1.148771
     2   Atom        0.025857      0.043512     -0.069369
     3   Atom       -0.015907      0.070984     -0.055077
     4   Atom       -0.040905      0.106598     -0.065693
     5   Atom       -0.576811      1.133342     -0.556530
     6   Atom       -0.010334      0.067893     -0.057559
     7   Atom        0.003414     -0.001582     -0.001832
 --------------------------------------------------------
                        XY            XZ            YZ
 --------------------------------------------------------
     1   Atom        0.010652     -0.087398     -0.261358
     2   Atom       -0.100860      0.134998     -0.082144
     3   Atom        0.052426      0.040052      0.026525
     4   Atom        0.060723      0.020464      0.030233
     5   Atom        0.193441     -0.054017     -0.006528
     6   Atom       -0.054869      0.069913     -0.045270
     7   Atom       -0.000928     -0.000965      0.000484
 --------------------------------------------------------


 ---------------------------------------------------------------------------------
              Anisotropic Spin Dipole Couplings in Principal Axis System
 ---------------------------------------------------------------------------------

       Atom             a.u.   MegaHertz   Gauss  10(-4) cm-1        Axes

              Baa    -1.2966    93.821    33.478    31.295  0.8301  0.0371  0.5563
     1 O(17)  Bbb    -1.1100    80.316    28.659    26.791 -0.5576  0.0636  0.8277
              Bcc     2.4066  -174.137   -62.136   -58.086  0.0047  0.9973 -0.0734
 
              Baa    -0.1654    11.970     4.271     3.993 -0.5549  0.0584  0.8299
     2 O(17)  Bbb    -0.0526     3.806     1.358     1.270  0.5233  0.8000  0.2936
              Bcc     0.2180   -15.776    -5.629    -5.262  0.6468 -0.5971  0.4745
 
              Baa    -0.0803   -10.778    -3.846    -3.595 -0.5545  0.0464  0.8309
     3 C(13)  Bbb    -0.0260    -3.492    -1.246    -1.165  0.7000 -0.5139  0.4958
              Bcc     0.1063    14.270     5.092     4.760  0.4500  0.8566  0.2524
 
              Baa    -0.0774   -10.381    -3.704    -3.463 -0.5380  0.0392  0.8421
     4 C(13)  Bbb    -0.0573    -7.686    -2.743    -2.564  0.7714 -0.3800  0.5105
              Bcc     0.1346    18.067     6.447     6.026  0.3400  0.9242  0.1742
 
              Baa    -0.6345    45.909    16.381    15.313  0.8221 -0.0879  0.5625
     5 O(17)  Bbb    -0.5206    37.669    13.441    12.565 -0.5584  0.0686  0.8267
              Bcc     1.1550   -83.578   -29.823   -27.879  0.1112  0.9938 -0.0073
 
              Baa    -0.1079     7.808     2.786     2.604 -0.5695  0.0337  0.8213
     6 O(17)  Bbb    -0.0184     1.329     0.474     0.443  0.6475  0.6339  0.4230
              Bcc     0.1263    -9.137    -3.260    -3.048 -0.5063  0.7727 -0.3828
 

 ---------------------------------------------------------------------------------

 PrsmSu:  requested number of processors reduced to:  30 ShMem   1 Linda.
   1 Symmetry operations used in ECPInt.
 ECPInt:  NShTT=    1081 NPrTT=    3915 LenC2=    1068 LenP2D=    3152.
 LDataN:  DoStor=T MaxTD1= 7 Len=  274
 Number of processors reduced to  42 by ecpmxn.
 D1PCM: PCM CHGder 1st derivatives, ID1Alg=3 FixD1E=F DoIter=F DoCFld=F I1PDM=0.
 CoulSu:  requested number of processors reduced to:  48 ShMem   1 Linda.
 CoulSu:  requested number of processors reduced to:  48 ShMem   1 Linda.
 CoulSu:  requested number of processors reduced to:  29 ShMem   1 Linda.
 CoulSu:  requested number of processors reduced to:  30 ShMem   1 Linda.
 Calling FoFJK, ICntrl=      2127 FMM=F ISym2X=0 I1Cent= 0 IOpClX= 1 NMat=1 NMatS=1 NMatT=0.
 Defaulting to unpruned grid for atomic number  55.
 Defaulting to unpruned grid for atomic number  55.
 Defaulting to unpruned grid for atomic number  55.
 Defaulting to unpruned grid for atomic number  55.
 Defaulting to unpruned grid for atomic number  55.
 Defaulting to unpruned grid for atomic number  55.
 Defaulting to unpruned grid for atomic number  55.
 Defaulting to unpruned grid for atomic number  55.
 Defaulting to unpruned grid for atomic number  55.
 Defaulting to unpruned grid for atomic number  55.
 Defaulting to unpruned grid for atomic number  55.
 Defaulting to unpruned grid for atomic number  55.
 Defaulting to unpruned grid for atomic number  55.
 Defaulting to unpruned grid for atomic number  55.
 Defaulting to unpruned grid for atomic number  55.
 Defaulting to unpruned grid for atomic number  55.
 Defaulting to unpruned grid for atomic number  55.
 Defaulting to unpruned grid for atomic number  55.
 Defaulting to unpruned grid for atomic number  55.
 Defaulting to unpruned grid for atomic number  55.
 Defaulting to unpruned grid for atomic number  55.
 Defaulting to unpruned grid for atomic number  55.
 Defaulting to unpruned grid for atomic number  55.
 Defaulting to unpruned grid for atomic number  55.
 Defaulting to unpruned grid for atomic number  55.
 Defaulting to unpruned grid for atomic number  55.
 Defaulting to unpruned grid for atomic number  55.
 Defaulting to unpruned grid for atomic number  55.
 Defaulting to unpruned grid for atomic number  55.
 Defaulting to unpruned grid for atomic number  55.
 Defaulting to unpruned grid for atomic number  55.
 Defaulting to unpruned grid for atomic number  55.
 Defaulting to unpruned grid for atomic number  55.
 Defaulting to unpruned grid for atomic number  55.
 Defaulting to unpruned grid for atomic number  55.
 Defaulting to unpruned grid for atomic number  55.
 Defaulting to unpruned grid for atomic number  55.
 Defaulting to unpruned grid for atomic number  55.
 Defaulting to unpruned grid for atomic number  55.
 Defaulting to unpruned grid for atomic number  55.
 Defaulting to unpruned grid for atomic number  55.
 Defaulting to unpruned grid for atomic number  55.
 Defaulting to unpruned grid for atomic number  55.
 Defaulting to unpruned grid for atomic number  55.
 Defaulting to unpruned grid for atomic number  55.
 Defaulting to unpruned grid for atomic number  55.
 Defaulting to unpruned grid for atomic number  55.
 Defaulting to unpruned grid for atomic number  55.
 Defaulting to unpruned grid for atomic number  55.
 ***** Axes restored to original set *****
 -------------------------------------------------------------------
 Center     Atomic                   Forces (Hartrees/Bohr)
 Number     Number              X              Y              Z
 -------------------------------------------------------------------
      1        8           0.043588378   -0.011169192    0.008556100
      2        8           0.007721978   -0.000873947   -0.004994924
      3        6          -0.073712840   -0.004498463    0.013896700
      4        6           0.095847679    0.001125741   -0.009750671
      5        8          -0.056019317    0.009884429   -0.010746273
      6        8          -0.014994120    0.001003440    0.001198802
      7       55          -0.002431758    0.004527992    0.001840266
 -------------------------------------------------------------------
 Cartesian Forces:  Max     0.095847679 RMS     0.031412556

 GradGradGradGradGradGradGradGradGradGradGradGradGradGradGradGradGradGrad
 Berny optimization.
 FormGI is forming the generalized inverse of G from B-inverse, IUseBI=4.
 Internal  Forces:  Max     0.058996840 RMS     0.020573283
 Search for a local minimum.
 Step number   1 out of a maximum of   10
 All quantities printed in internal units (Hartrees-Bohrs-Radians)
 Mixed Optimization -- RFO/linear search
 Second derivative matrix not updated -- first step.
 The second derivative matrix:
                          R1        R2        R3        R4        R5
           R1           0.67556
           R2           0.00000   0.98034
           R3           0.00000   0.00000   0.27681
           R4           0.00000   0.00000   0.00000   0.67556
           R5           0.00000   0.00000   0.00000   0.00000   0.97996
           R6           0.00000   0.00000   0.00000   0.00000   0.00000
           A1           0.00000   0.00000   0.00000   0.00000   0.00000
           A2           0.00000   0.00000   0.00000   0.00000   0.00000
           A3           0.00000   0.00000   0.00000   0.00000   0.00000
           A4           0.00000   0.00000   0.00000   0.00000   0.00000
           A5           0.00000   0.00000   0.00000   0.00000   0.00000
           A6           0.00000   0.00000   0.00000   0.00000   0.00000
           A7           0.00000   0.00000   0.00000   0.00000   0.00000
           D1           0.00000   0.00000   0.00000   0.00000   0.00000
           D2           0.00000   0.00000   0.00000   0.00000   0.00000
           D3           0.00000   0.00000   0.00000   0.00000   0.00000
           D4           0.00000   0.00000   0.00000   0.00000   0.00000
           D5           0.00000   0.00000   0.00000   0.00000   0.00000
           D6           0.00000   0.00000   0.00000   0.00000   0.00000
                          R6        A1        A2        A3        A4
           R6           0.02463
           A1           0.00000   0.25000
           A2           0.00000   0.00000   0.25000
           A3           0.00000   0.00000   0.00000   0.25000
           A4           0.00000   0.00000   0.00000   0.00000   0.25000
           A5           0.00000   0.00000   0.00000   0.00000   0.00000
           A6           0.00000   0.00000   0.00000   0.00000   0.00000
           A7           0.00000   0.00000   0.00000   0.00000   0.00000
           D1           0.00000   0.00000   0.00000   0.00000   0.00000
           D2           0.00000   0.00000   0.00000   0.00000   0.00000
           D3           0.00000   0.00000   0.00000   0.00000   0.00000
           D4           0.00000   0.00000   0.00000   0.00000   0.00000
           D5           0.00000   0.00000   0.00000   0.00000   0.00000
           D6           0.00000   0.00000   0.00000   0.00000   0.00000
                          A5        A6        A7        D1        D2
           A5           0.25000
           A6           0.00000   0.25000
           A7           0.00000   0.00000   0.25000
           D1           0.00000   0.00000   0.00000   0.00230
           D2           0.00000   0.00000   0.00000   0.00000   0.00230
           D3           0.00000   0.00000   0.00000   0.00000   0.00000
           D4           0.00000   0.00000   0.00000   0.00000   0.00000
           D5           0.00000   0.00000   0.00000   0.00000   0.00000
           D6           0.00000   0.00000   0.00000   0.00000   0.00000
                          D3        D4        D5        D6
           D3           0.00230
           D4           0.00000   0.00230
           D5           0.00000   0.00000   0.03032
           D6           0.00000   0.00000   0.00000   0.03032
 ITU=  0
     Eigenvalues ---    0.00230   0.00235   0.01234   0.02463   0.03032
     Eigenvalues ---    0.24995   0.25000   0.25000   0.25000   0.25000
     Eigenvalues ---    0.27681   0.67556   0.67556   0.97996   0.98034
 RFO step:  Lambda=-1.95006028D-02 EMin= 2.30000000D-03
 Linear search not attempted -- first point.
 Iteration  1 RMS(Cart)=  0.16979683 RMS(Int)=  0.01075014
 Iteration  2 RMS(Cart)=  0.00928496 RMS(Int)=  0.00313996
 Iteration  3 RMS(Cart)=  0.00003529 RMS(Int)=  0.00313982
 Iteration  4 RMS(Cart)=  0.00000015 RMS(Int)=  0.00313982
 Variable       Old X    -DE/DX   Delta X   Delta X   Delta X     New X
                                 (Linear)    (Quad)   (Total)
    R1        2.45418  -0.04478   0.00000  -0.06443  -0.06443   2.38975
    R2        2.29436  -0.00215   0.00000  -0.00215  -0.00215   2.29222
    R3        2.92841   0.03252   0.00000   0.10975   0.10975   3.03817
    R4        2.45418  -0.05900   0.00000  -0.08488  -0.08488   2.36930
    R5        2.29452   0.00154   0.00000   0.00154   0.00154   2.29606
    R6        5.84839  -0.00501   0.00000  -0.11355  -0.11355   5.73483
    A1        2.20648   0.01406   0.00000   0.05380   0.04583   2.25231
    A2        1.94685  -0.00948   0.00000  -0.03353  -0.04133   1.90552
    A3        2.12954  -0.00446   0.00000  -0.01491  -0.02268   2.10686
    A4        1.94685  -0.01758   0.00000  -0.06526  -0.06526   1.88159
    A5        2.12946  -0.00843   0.00000  -0.03133  -0.03133   2.09813
    A6        2.20655   0.02600   0.00000   0.09645   0.09643   2.30298
    A7        2.07023  -0.00501   0.00000  -0.01859  -0.01859   2.05163
    D1        3.14159   0.00097   0.00000   0.04764   0.04673  -3.09487
    D2       -0.02562   0.00102   0.00000   0.04342   0.04277   0.01715
    D3        0.02556  -0.00372   0.00000  -0.16714  -0.16650  -0.14094
    D4        3.14153  -0.00367   0.00000  -0.17136  -0.17045   2.97107
    D5        1.04860  -0.00521   0.00000  -0.10192  -0.10215   0.94644
    D6       -2.06599  -0.00460   0.00000  -0.09502  -0.09479  -2.16078
         Item               Value     Threshold  Converged?
 Maximum Force            0.058997     0.000450     NO 
 RMS     Force            0.020573     0.000300     NO 
 Maximum Displacement     0.416164     0.001800     NO 
 RMS     Displacement     0.170553     0.001200     NO 
 Predicted change in Energy=-1.105924D-02
 GradGradGradGradGradGradGradGradGradGradGradGradGradGradGradGradGradGrad

                          Input orientation:                          
 ---------------------------------------------------------------------
 Center     Atomic      Atomic             Coordinates (Angstroms)
 Number     Number       Type             X           Y           Z
 ---------------------------------------------------------------------
      1          8           0       -2.095352    3.451841    6.594304
      2          8           0       -0.780095    2.087580    7.782629
      3          6           0       -0.993864    3.032354    7.052530
      4          6           0        0.212099    3.761535    6.278747
      5          8           0        1.288527    3.287759    6.713264
      6          8           0       -0.023591    4.586334    5.418258
      7         55           0        1.631576    0.273696    6.627168
 ---------------------------------------------------------------------
                    Distance matrix (angstroms):
                    1          2          3          4          5
     1  O    0.000000
     2  O    2.236789   0.000000
     3  C    1.264601   1.212988   0.000000
     4  C    2.349429   2.459316   1.607728   0.000000
     5  O    3.389942   2.619765   2.321560   1.253780   0.000000
     6  O    2.638626   3.522260   2.455020   1.215025   2.254992
     7  Cs   4.898130   3.231318   3.831978   3.781710   3.034744
                    6          7
     6  O    0.000000
     7  Cs   4.774922   0.000000
 Stoichiometry    C2CsO4(2)
 Framework group  C1[X(C2CsO4)]
 Deg. of freedom    15
 Full point group                 C1      NOp   1
 Largest Abelian subgroup         C1      NOp   1
 Largest concise Abelian subgroup C1      NOp   1
                         Standard orientation:                         
 ---------------------------------------------------------------------
 Center     Atomic      Atomic             Coordinates (Angstroms)
 Number     Number       Type             X           Y           Z
 ---------------------------------------------------------------------
      1          8           0       -3.090194   -1.187232   -0.523330
      2          8           0       -1.168368   -1.441820    0.592463
      3          6           0       -2.098425   -0.796318    0.156962
      4          6           0       -2.045488    0.810430    0.138298
      5          8           0       -1.024466    1.167811    0.772143
      6          8           0       -2.895349    1.443335   -0.456219
      7         55           0        1.641645    0.001065   -0.088218
 ---------------------------------------------------------------------
 Rotational constants (GHZ):           3.3510683           0.6280632           0.5573860
 Standard basis: def2SVP (5D, 7F)
 There are   116 symmetry adapted cartesian basis functions of A   symmetry.
 There are   108 symmetry adapted basis functions of A   symmetry.
   108 basis functions,   187 primitive gaussians,   116 cartesian basis functions
    27 alpha electrons       26 beta electrons
       nuclear repulsion energy       267.1128852226 Hartrees.
 NAtoms=    7 NActive=    7 NUniq=    7 SFac= 1.00D+00 NAtFMM=   60 NAOKFM=F Big=F
 Integral buffers will be    131072 words long.
 Raffenetti 2 integral format.
 Two-electron integral symmetry is turned on.
 ------------------------------------------------------------------------------
 Polarizable Continuum Model (PCM)
 =================================
 Model                : PCM.
 Atomic radii         : UFF (Universal Force Field).
 Polarization charges : Total charges.
 Charge compensation  : None.
 Solution method      : On-the-fly selection.
 Cavity type          : Scaled VdW (van der Waals Surface) (Alpha=1.100).
 Cavity algorithm     : GePol (No added spheres)
                        Default sphere list used, NSphG=    7.
                        Lebedev-Laikov grids with approx.  5.0 points / Ang**2.
                        Smoothing algorithm: York/Karplus (Gamma=1.0000).
                        Polarization charges: spherical gaussians, with
                                              point-specific exponents (IZeta= 3).
                        Self-potential: point-specific (ISelfS= 7).
                        Self-field    : sphere-specific E.n sum rule (ISelfD= 2).
 1st derivatives      : Analytical E(r).r(x)/FMM algorithm (CHGder, D1EAlg=3).
                        Cavity 1st derivative terms included.
 Solvent              : Water, Eps=  78.355300 Eps(inf)=   1.777849
 ------------------------------------------------------------------------------
 Spheres list:
 ISph  on   Nord     Re0    Alpha      Xe            Ye            Ze
    1   O      1    1.7500  1.100     -3.090194     -1.187232     -0.523330
    2   O      2    1.7500  1.100     -1.168368     -1.441820      0.592463
    3   C      3    1.9255  1.100     -2.098425     -0.796318      0.156962
    4   C      4    1.9255  1.100     -2.045488      0.810430      0.138298
    5   O      5    1.7500  1.100     -1.024466      1.167811      0.772143
    6   O      6    1.7500  1.100     -2.895349      1.443335     -0.456219
    7  Cs      7    2.2585  1.100      1.641645      0.001065     -0.088218
 ------------------------------------------------------------------------------
 One-electron integrals computed using PRISM.
 PrsmSu:  requested number of processors reduced to:  30 ShMem   1 Linda.
   1 Symmetry operations used in ECPInt.
 ECPInt:  NShTT=    1081 NPrTT=    3915 LenC2=    1070 LenP2D=    3162.
 LDataN:  DoStor=T MaxTD1= 6 Len=  172
 Number of processors reduced to  40 by ecpmxn.
 NBasis=   108 RedAO= T EigKep=  4.68D-03  NBF=   108
 NBsUse=   108 1.00D-06 EigRej= -1.00D+00 NBFU=   108
 Defaulting to unpruned grid for atomic number  55.
 Initial guess from the checkpoint file:  "/home/zz1/proj/gauss/new/chk/Cs-VOHSAM-5/0.chk"
 B after Tr=     0.000000    0.000000   -0.000000
         Rot=    0.999360    0.028339   -0.004042   -0.021433 Ang=   4.10 deg.
 Initial guess <Sx>= 0.0000 <Sy>= 0.0000 <Sz>= 0.5000 <S**2>= 0.7613 S= 0.5056
 ExpMin= 1.20D-02 ExpMax= 2.27D+03 ExpMxC= 3.41D+02 IAcc=3 IRadAn=         5 AccDes= 0.00D+00
 Harris functional with IExCor= 1009 and IRadAn=       5 diagonalized for initial guess.
 HarFok:  IExCor= 1009 AccDes= 0.00D+00 IRadAn=         5 IDoV= 1 UseB2=F ITyADJ=14
 ICtDFT=  3500011 ScaDFX=  1.000000  1.000000  1.000000  1.000000
 Defaulting to unpruned grid for atomic number  55.
 FoFCou: FMM=F IPFlag=           0 FMFlag=      100000 FMFlg1=           0
         NFxFlg=           0 DoJE=T BraDBF=F KetDBF=T FulRan=T
         wScrn=  0.000000 ICntrl=       500 IOpCl=  0 I1Cent=   200000004 NGrid=           0
         NMat0=    1 NMatS0=      1 NMatT0=    0 NMatD0=    1 NMtDS0=    0 NMtDT0=    0
 Petite list used in FoFCou.
 Keep R1 and R2 ints in memory in canonical form, NReq=80840190.
 Requested convergence on RMS density matrix=1.00D-08 within 128 cycles.
 Requested convergence on MAX density matrix=1.00D-06.
 Requested convergence on             energy=1.00D-06.
 No special actions if energy rises.
 Defaulting to unpruned grid for atomic number  55.
 Defaulting to unpruned grid for atomic number  55.
 Defaulting to unpruned grid for atomic number  55.
 Defaulting to unpruned grid for atomic number  55.
 Defaulting to unpruned grid for atomic number  55.
 Defaulting to unpruned grid for atomic number  55.
 Defaulting to unpruned grid for atomic number  55.
 Defaulting to unpruned grid for atomic number  55.
 Defaulting to unpruned grid for atomic number  55.
 Defaulting to unpruned grid for atomic number  55.
 Defaulting to unpruned grid for atomic number  55.
 Defaulting to unpruned grid for atomic number  55.
 Defaulting to unpruned grid for atomic number  55.
 Defaulting to unpruned grid for atomic number  55.
 Defaulting to unpruned grid for atomic number  55.
 Defaulting to unpruned grid for atomic number  55.
 Defaulting to unpruned grid for atomic number  55.
 Defaulting to unpruned grid for atomic number  55.
 Defaulting to unpruned grid for atomic number  55.
 Defaulting to unpruned grid for atomic number  55.
 Defaulting to unpruned grid for atomic number  55.
 Defaulting to unpruned grid for atomic number  55.
 Defaulting to unpruned grid for atomic number  55.
 Defaulting to unpruned grid for atomic number  55.
 Defaulting to unpruned grid for atomic number  55.
 Defaulting to unpruned grid for atomic number  55.
 Defaulting to unpruned grid for atomic number  55.
 Defaulting to unpruned grid for atomic number  55.
 Defaulting to unpruned grid for atomic number  55.
 Defaulting to unpruned grid for atomic number  55.
 Defaulting to unpruned grid for atomic number  55.
 Defaulting to unpruned grid for atomic number  55.
 Defaulting to unpruned grid for atomic number  55.
 Defaulting to unpruned grid for atomic number  55.
 Defaulting to unpruned grid for atomic number  55.
 Defaulting to unpruned grid for atomic number  55.
 Defaulting to unpruned grid for atomic number  55.
 Defaulting to unpruned grid for atomic number  55.
 Defaulting to unpruned grid for atomic number  55.
 Defaulting to unpruned grid for atomic number  55.
 Defaulting to unpruned grid for atomic number  55.
 Defaulting to unpruned grid for atomic number  55.
 Defaulting to unpruned grid for atomic number  55.
 Defaulting to unpruned grid for atomic number  55.
 Defaulting to unpruned grid for atomic number  55.
 Defaulting to unpruned grid for atomic number  55.
 Defaulting to unpruned grid for atomic number  55.
 Defaulting to unpruned grid for atomic number  55.
 Defaulting to unpruned grid for atomic number  55.
 CoulSu:  requested number of processors reduced to:  32 ShMem   1 Linda.
 Inv3:  Mode=1 IEnd=     3912492.
 Iteration    1 A*A^-1 deviation from unit magnitude is 2.89D-15 for    748.
 Iteration    1 A*A^-1 deviation from orthogonality  is 1.55D-15 for    982    586.
 Iteration    1 A^-1*A deviation from unit magnitude is 2.66D-15 for     88.
 Iteration    1 A^-1*A deviation from orthogonality  is 2.51D-10 for    667    623.
 Iteration    2 A*A^-1 deviation from unit magnitude is 2.55D-15 for    185.
 Iteration    2 A*A^-1 deviation from orthogonality  is 2.46D-15 for    702    588.
 Iteration    2 A^-1*A deviation from unit magnitude is 1.89D-15 for    185.
 Iteration    2 A^-1*A deviation from orthogonality  is 1.11D-15 for   1081   1006.
 CoulSu:  requested number of processors reduced to:  32 ShMem   1 Linda.
 CoulSu:  requested number of processors reduced to:  32 ShMem   1 Linda.
 CoulSu:  requested number of processors reduced to:  33 ShMem   1 Linda.
 CoulSu:  requested number of processors reduced to:  31 ShMem   1 Linda.
 Error on total polarization charges =  0.00641
 SCF Done:  E(UM062X) =  -396.841514591     A.U. after   22 cycles
            NFock= 22  Conv=0.71D-08     -V/T= 2.0452
 <Sx>= 0.0000 <Sy>= 0.0000 <Sz>= 0.5000 <S**2>= 0.7585 S= 0.5043
 <L.S>=  0.00000000000    
 Annihilation of the first spin contaminant:
 S**2 before annihilation     0.7585,   after     0.7500

 **********************************************************************

            Population analysis using the SCF density.

 **********************************************************************

 Orbital symmetries:
 Alpha Orbitals:
       Occupied  (A) (A) (A) (A) (A) (A) (A) (A) (A) (A) (A) (A)
                 (A) (A) (A) (A) (A) (A) (A) (A) (A) (A) (A) (A)
                 (A) (A) (A)
       Virtual   (A) (A) (A) (A) (A) (A) (A) (A) (A) (A) (A) (A)
                 (A) (A) (A) (A) (A) (A) (A) (A) (A) (A) (A) (A)
                 (A) (A) (A) (A) (A) (A) (A) (A) (A) (A) (A) (A)
                 (A) (A) (A) (A) (A) (A) (A) (A) (A) (A) (A) (A)
                 (A) (A) (A) (A) (A) (A) (A) (A) (A) (A) (A) (A)
                 (A) (A) (A) (A) (A) (A) (A) (A) (A) (A) (A) (A)
                 (A) (A) (A) (A) (A) (A) (A) (A) (A)
 Beta  Orbitals:
       Occupied  (A) (A) (A) (A) (A) (A) (A) (A) (A) (A) (A) (A)
                 (A) (A) (A) (A) (A) (A) (A) (A) (A) (A) (A) (A)
                 (A) (A)
       Virtual   (A) (A) (A) (A) (A) (A) (A) (A) (A) (A) (A) (A)
                 (A) (A) (A) (A) (A) (A) (A) (A) (A) (A) (A) (A)
                 (A) (A) (A) (A) (A) (A) (A) (A) (A) (A) (A) (A)
                 (A) (A) (A) (A) (A) (A) (A) (A) (A) (A) (A) (A)
                 (A) (A) (A) (A) (A) (A) (A) (A) (A) (A) (A) (A)
                 (A) (A) (A) (A) (A) (A) (A) (A) (A) (A) (A) (A)
                 (A) (A) (A) (A) (A) (A) (A) (A) (A) (A)
 The electronic state is 2-A.
 Alpha  occ. eigenvalues --  -19.65763 -19.64279 -19.62423 -19.61610 -10.68726
 Alpha  occ. eigenvalues --  -10.68617  -1.21514  -1.17649  -1.11955  -1.10470
 Alpha  occ. eigenvalues --   -1.09282  -0.73061  -0.59218  -0.59005  -0.56333
 Alpha  occ. eigenvalues --   -0.55987  -0.55708  -0.55199  -0.54056  -0.52482
 Alpha  occ. eigenvalues --   -0.49385  -0.44629  -0.39849  -0.37685  -0.36248
 Alpha  occ. eigenvalues --   -0.36099  -0.32187
 Alpha virt. eigenvalues --   -0.01169   0.01163   0.01455   0.01912   0.02107
 Alpha virt. eigenvalues --    0.05056   0.05804   0.05994   0.06434   0.07204
 Alpha virt. eigenvalues --    0.08377   0.15128   0.19496   0.20039   0.20054
 Alpha virt. eigenvalues --    0.20642   0.21372   0.27379   0.29530   0.32906
 Alpha virt. eigenvalues --    0.33562   0.35558   0.38150   0.43542   0.51330
 Alpha virt. eigenvalues --    0.54629   0.56392   0.60132   0.60424   0.62294
 Alpha virt. eigenvalues --    0.66932   0.67975   0.71805   0.76066   0.94555
 Alpha virt. eigenvalues --    0.98868   1.02731   1.04286   1.07599   1.11026
 Alpha virt. eigenvalues --    1.12362   1.14231   1.23066   1.23673   1.26594
 Alpha virt. eigenvalues --    1.35132   1.38060   1.46638   1.52034   1.60622
 Alpha virt. eigenvalues --    1.66636   1.67156   1.69495   1.74645   1.95818
 Alpha virt. eigenvalues --    2.01470   2.07206   2.22497   2.25775   2.33838
 Alpha virt. eigenvalues --    2.67865   2.69294   2.70001   2.71848   2.73452
 Alpha virt. eigenvalues --    2.75630   2.77109   2.79492   2.98984   3.01094
 Alpha virt. eigenvalues --    3.04782   3.25899   3.29166   3.34528   3.36067
 Alpha virt. eigenvalues --    3.42892   3.58770   3.65496   3.73878   3.82088
 Alpha virt. eigenvalues --   19.76551
  Beta  occ. eigenvalues --  -19.64781 -19.63573 -19.62336 -19.61498 -10.68648
  Beta  occ. eigenvalues --  -10.68522  -1.20091  -1.16411  -1.10666  -1.09887
  Beta  occ. eigenvalues --   -1.07681  -0.69580  -0.58292  -0.57850  -0.56120
  Beta  occ. eigenvalues --   -0.55688  -0.55327  -0.54055  -0.52810  -0.50727
  Beta  occ. eigenvalues --   -0.48735  -0.40292  -0.36771  -0.35455  -0.34540
  Beta  occ. eigenvalues --   -0.31677
  Beta virt. eigenvalues --   -0.13473  -0.01053   0.01359   0.01501   0.02192
  Beta virt. eigenvalues --    0.02545   0.05129   0.05841   0.06037   0.06535
  Beta virt. eigenvalues --    0.07224   0.08456   0.15569   0.19518   0.20062
  Beta virt. eigenvalues --    0.20074   0.20678   0.21461   0.28468   0.29820
  Beta virt. eigenvalues --    0.32975   0.33660   0.36012   0.39183   0.45013
  Beta virt. eigenvalues --    0.51364   0.54882   0.56522   0.60518   0.60675
  Beta virt. eigenvalues --    0.62557   0.67128   0.69000   0.72420   0.76939
  Beta virt. eigenvalues --    0.95479   0.99305   1.03663   1.05189   1.08990
  Beta virt. eigenvalues --    1.11643   1.12641   1.15032   1.23617   1.24705
  Beta virt. eigenvalues --    1.27654   1.36098   1.38684   1.46549   1.52164
  Beta virt. eigenvalues --    1.61188   1.67600   1.67776   1.70182   1.75395
  Beta virt. eigenvalues --    1.96179   2.01947   2.07767   2.23662   2.26211
  Beta virt. eigenvalues --    2.34031   2.69884   2.70508   2.71299   2.72770
  Beta virt. eigenvalues --    2.74235   2.76913   2.77909   2.80389   2.99251
  Beta virt. eigenvalues --    3.02327   3.05110   3.26583   3.29738   3.35364
  Beta virt. eigenvalues --    3.36680   3.43384   3.59069   3.66433   3.74301
  Beta virt. eigenvalues --    3.82718  19.76550
          Condensed to atoms (all electrons):
               1          2          3          4          5          6
     1  O    7.912331  -0.082445   0.516173  -0.074876   0.001392  -0.008672
     2  O   -0.082445   7.838538   0.599168  -0.081770  -0.006999   0.000808
     3  C    0.516173   0.599168   4.821074   0.055847  -0.089363  -0.091112
     4  C   -0.074876  -0.081770   0.055847   4.749536   0.492820   0.669375
     5  O    0.001392  -0.006999  -0.089363   0.492820   7.953941  -0.075759
     6  O   -0.008672   0.000808  -0.091112   0.669375  -0.075759   7.813562
     7  Cs   0.005461   0.048897  -0.000349  -0.005293   0.050905   0.006051
               7
     1  O    0.005461
     2  O    0.048897
     3  C   -0.000349
     4  C   -0.005293
     5  O    0.050905
     6  O    0.006051
     7  Cs   8.050501
          Atomic-Atomic Spin Densities.
               1          2          3          4          5          6
     1  O    0.534385   0.009040  -0.079160  -0.026784   0.002227   0.014015
     2  O    0.009040   0.038378  -0.014001  -0.009984   0.013163   0.000541
     3  C   -0.079160  -0.014001   0.015071   0.167474  -0.026678  -0.002703
     4  C   -0.026784  -0.009984   0.167474   0.051617  -0.077204  -0.020763
     5  O    0.002227   0.013163  -0.026678  -0.077204   0.386035   0.008299
     6  O    0.014015   0.000541  -0.002703  -0.020763   0.008299   0.051405
     7  Cs  -0.002123  -0.000912   0.004674   0.005411  -0.003172  -0.000221
               7
     1  O   -0.002123
     2  O   -0.000912
     3  C    0.004674
     4  C    0.005411
     5  O   -0.003172
     6  O   -0.000221
     7  Cs   0.000830
 Mulliken charges and spin densities:
               1          2
     1  O   -0.269363   0.451600
     2  O   -0.316197   0.036225
     3  C    0.188562   0.064678
     4  C    0.194361   0.089767
     5  O   -0.326937   0.302671
     6  O   -0.314253   0.050573
     7  Cs   0.843826   0.004486
 Sum of Mulliken charges =  -0.00000   1.00000
 Mulliken charges and spin densities with hydrogens summed into heavy atoms:
               1          2
     1  O   -0.269363   0.451600
     2  O   -0.316197   0.036225
     3  C    0.188562   0.064678
     4  C    0.194361   0.089767
     5  O   -0.326937   0.302671
     6  O   -0.314253   0.050573
     7  Cs   0.843826   0.004486
 Electronic spatial extent (au):  <R**2>=           1251.0067
 Charge=             -0.0000 electrons
 Dipole moment (field-independent basis, Debye):
    X=             16.0083    Y=             -0.3459    Z=             -0.8751  Tot=             16.0359
 Quadrupole moment (field-independent basis, Debye-Ang):
   XX=            -62.0746   YY=            -62.3012   ZZ=            -52.2263
   XY=              1.9656   XZ=             -5.6089   YZ=              0.5246
 Traceless Quadrupole moment (field-independent basis, Debye-Ang):
   XX=             -3.2072   YY=             -3.4338   ZZ=              6.6410
   XY=              1.9656   XZ=             -5.6089   YZ=              0.5246
 Octapole moment (field-independent basis, Debye-Ang**2):
  XXX=            217.4394  YYY=             -1.2077  ZZZ=             -8.0270  XYY=             63.3759
  XXY=             -6.3699  XXZ=             18.4796  XZZ=             42.8438  YZZ=             -0.6183
  YYZ=             -3.6744  XYZ=             -1.4888
 Hexadecapole moment (field-independent basis, Debye-Ang**3):
 XXXX=          -1506.2451 YYYY=           -353.7722 ZZZZ=           -103.8059 XXXY=             17.7972
 XXXZ=            -77.7058 YYYX=             10.3212 YYYZ=              4.5156 ZZZX=             -8.2605
 ZZZY=             -0.4674 XXYY=           -325.9817 XXZZ=           -235.1183 YYZZ=            -76.2698
 XXYZ=              3.3439 YYXZ=             -8.8258 ZZXY=              0.9277
 N-N= 2.671128852226D+02 E-N=-1.463005430660D+03  KE= 3.796938072218D+02
                          Isotropic Fermi Contact Couplings
        Atom                 a.u.       MegaHertz       Gauss      10(-4) cm-1
     1  O(17)              0.12487     -75.69393     -27.00948     -25.24878
     2  O(17)              0.00193      -1.17101      -0.41785      -0.39061
     3  C(13)              0.02607      29.30899      10.45818       9.77643
     4  C(13)              0.03858      43.37416      15.47698      14.46806
     5  O(17)              0.09942     -60.26538     -21.50419     -20.10237
     6  O(17)              0.00386      -2.33846      -0.83442      -0.78003
 --------------------------------------------------------
       Center         ----  Spin Dipole Couplings  ----
                      3XX-RR        3YY-RR        3ZZ-RR
 --------------------------------------------------------
     1   Atom       -0.886898      1.705578     -0.818680
     2   Atom       -0.071573      0.249261     -0.177688
     3   Atom       -0.079744      0.172225     -0.092481
     4   Atom       -0.081480      0.183338     -0.101858
     5   Atom       -0.586931      1.178090     -0.591159
     6   Atom       -0.134123      0.294097     -0.159974
     7   Atom        0.004201     -0.001833     -0.002368
 --------------------------------------------------------
                        XY            XZ            YZ
 --------------------------------------------------------
     1   Atom       -0.069209     -0.070011      0.195544
     2   Atom       -0.146877      0.055774     -0.039154
     3   Atom        0.041533      0.027413      0.048428
     4   Atom        0.051730      0.015189      0.017105
     5   Atom        0.269781     -0.036659      0.003242
     6   Atom       -0.074050      0.044972     -0.073480
     7   Atom       -0.000987     -0.001186      0.000467
 --------------------------------------------------------


 ---------------------------------------------------------------------------------
              Anisotropic Spin Dipole Couplings in Principal Axis System
 ---------------------------------------------------------------------------------

       Atom             a.u.   MegaHertz   Gauss  10(-4) cm-1        Axes

              Baa    -0.9315    67.404    24.051    22.484  0.8346 -0.0189  0.5506
     1 O(17)  Bbb    -0.7912    57.253    20.429    19.098 -0.5502 -0.0803  0.8312
              Bcc     1.7228  -124.658   -44.481   -41.581 -0.0285  0.9966  0.0775
 
              Baa    -0.2032    14.702     5.246     4.904 -0.4554 -0.0710  0.8875
     2 O(17)  Bbb    -0.1098     7.943     2.834     2.649  0.8102  0.3801  0.4462
              Bcc     0.3129   -22.644    -8.080    -7.553 -0.3690  0.9222 -0.1155
 
              Baa    -0.1149   -15.422    -5.503    -5.144 -0.5723 -0.0552  0.8182
     3 C(13)  Bbb    -0.0737    -9.889    -3.529    -3.299  0.8025 -0.2429  0.5450
              Bcc     0.1886    25.311     9.032     8.443  0.1686  0.9685  0.1833
 
              Baa    -0.1104   -14.809    -5.284    -4.940 -0.5240  0.0428  0.8506
     4 C(13)  Bbb    -0.0840   -11.276    -4.024    -3.761  0.8308 -0.1941  0.5216
              Bcc     0.1944    26.085     9.308     8.701  0.1874  0.9800  0.0662
 
              Baa    -0.6501    47.043    16.786    15.692  0.8395 -0.1248  0.5288
     5 O(17)  Bbb    -0.5683    41.120    14.673    13.716 -0.5228  0.0792  0.8488
              Bcc     1.2184   -88.163   -31.459   -29.408  0.1478  0.9890 -0.0012
 
              Baa    -0.1944    14.065     5.019     4.692 -0.5676  0.0377  0.8225
     6 O(17)  Bbb    -0.1255     9.084     3.241     3.030  0.8046  0.2373  0.5444
              Bcc     0.3199   -23.149    -8.260    -7.722 -0.1747  0.9707 -0.1650
 

 ---------------------------------------------------------------------------------

 PrsmSu:  requested number of processors reduced to:  30 ShMem   1 Linda.
   1 Symmetry operations used in ECPInt.
 ECPInt:  NShTT=    1081 NPrTT=    3915 LenC2=    1070 LenP2D=    3162.
 LDataN:  DoStor=T MaxTD1= 7 Len=  274
 Number of processors reduced to  42 by ecpmxn.
 D1PCM: PCM CHGder 1st derivatives, ID1Alg=3 FixD1E=F DoIter=F DoCFld=F I1PDM=0.
 CoulSu:  requested number of processors reduced to:  48 ShMem   1 Linda.
 CoulSu:  requested number of processors reduced to:  48 ShMem   1 Linda.
 CoulSu:  requested number of processors reduced to:  29 ShMem   1 Linda.
 CoulSu:  requested number of processors reduced to:  30 ShMem   1 Linda.
 Calling FoFJK, ICntrl=      2127 FMM=F ISym2X=0 I1Cent= 0 IOpClX= 1 NMat=1 NMatS=1 NMatT=0.
 Defaulting to unpruned grid for atomic number  55.
 Defaulting to unpruned grid for atomic number  55.
 Defaulting to unpruned grid for atomic number  55.
 Defaulting to unpruned grid for atomic number  55.
 Defaulting to unpruned grid for atomic number  55.
 Defaulting to unpruned grid for atomic number  55.
 Defaulting to unpruned grid for atomic number  55.
 Defaulting to unpruned grid for atomic number  55.
 Defaulting to unpruned grid for atomic number  55.
 Defaulting to unpruned grid for atomic number  55.
 Defaulting to unpruned grid for atomic number  55.
 Defaulting to unpruned grid for atomic number  55.
 Defaulting to unpruned grid for atomic number  55.
 Defaulting to unpruned grid for atomic number  55.
 Defaulting to unpruned grid for atomic number  55.
 Defaulting to unpruned grid for atomic number  55.
 Defaulting to unpruned grid for atomic number  55.
 Defaulting to unpruned grid for atomic number  55.
 Defaulting to unpruned grid for atomic number  55.
 Defaulting to unpruned grid for atomic number  55.
 Defaulting to unpruned grid for atomic number  55.
 Defaulting to unpruned grid for atomic number  55.
 Defaulting to unpruned grid for atomic number  55.
 Defaulting to unpruned grid for atomic number  55.
 Defaulting to unpruned grid for atomic number  55.
 Defaulting to unpruned grid for atomic number  55.
 Defaulting to unpruned grid for atomic number  55.
 Defaulting to unpruned grid for atomic number  55.
 Defaulting to unpruned grid for atomic number  55.
 Defaulting to unpruned grid for atomic number  55.
 Defaulting to unpruned grid for atomic number  55.
 Defaulting to unpruned grid for atomic number  55.
 Defaulting to unpruned grid for atomic number  55.
 Defaulting to unpruned grid for atomic number  55.
 Defaulting to unpruned grid for atomic number  55.
 Defaulting to unpruned grid for atomic number  55.
 Defaulting to unpruned grid for atomic number  55.
 Defaulting to unpruned grid for atomic number  55.
 Defaulting to unpruned grid for atomic number  55.
 Defaulting to unpruned grid for atomic number  55.
 Defaulting to unpruned grid for atomic number  55.
 Defaulting to unpruned grid for atomic number  55.
 Defaulting to unpruned grid for atomic number  55.
 Defaulting to unpruned grid for atomic number  55.
 Defaulting to unpruned grid for atomic number  55.
 Defaulting to unpruned grid for atomic number  55.
 Defaulting to unpruned grid for atomic number  55.
 Defaulting to unpruned grid for atomic number  55.
 Defaulting to unpruned grid for atomic number  55.
 ***** Axes restored to original set *****
 -------------------------------------------------------------------
 Center     Atomic                   Forces (Hartrees/Bohr)
 Number     Number              X              Y              Z
 -------------------------------------------------------------------
      1        8           0.039901671    0.000402574    0.014942530
      2        8           0.017381613    0.001609531    0.006381231
      3        6          -0.092853735   -0.025654844   -0.005885898
      4        6           0.067801154    0.024130172   -0.022794721
      5        8          -0.023702905    0.005486251   -0.004938175
      6        8          -0.006359715   -0.008543465    0.010350815
      7       55          -0.002168084    0.002569781    0.001944217
 -------------------------------------------------------------------
 Cartesian Forces:  Max     0.092853735 RMS     0.029298530

 GradGradGradGradGradGradGradGradGradGradGradGradGradGradGradGradGradGrad
 Berny optimization.
 Using GEDIIS/GDIIS optimizer.
 FormGI is forming the generalized inverse of G from B-inverse, IUseBI=4.
 Internal  Forces:  Max     0.044830787 RMS     0.017616454
 Search for a local minimum.
 Step number   2 out of a maximum of   10
 All quantities printed in internal units (Hartrees-Bohrs-Radians)
 Mixed Optimization -- RFO/linear search
 Update second derivatives using D2CorX and points    1    2
 DE= -1.67D-02 DEPred=-1.11D-02 R= 1.51D+00
 TightC=F SS=  1.41D+00  RLast= 3.68D-01 DXNew= 5.0454D-01 1.1052D+00
 Trust test= 1.51D+00 RLast= 3.68D-01 DXMaxT set to 5.05D-01
 The second derivative matrix:
                          R1        R2        R3        R4        R5
           R1           0.56633
           R2          -0.00030   0.98851
           R3           0.08654   0.01711   0.24309
           R4          -0.12650   0.02819   0.15913   0.62876
           R5          -0.00496  -0.01435  -0.02568  -0.05583   1.00490
           R6          -0.00579   0.00200   0.00875   0.00034  -0.00380
           A1           0.03447   0.00947  -0.00795   0.07267  -0.01489
           A2          -0.02288   0.00494   0.02845  -0.00903  -0.00982
           A3          -0.02175  -0.01239  -0.00823  -0.06825   0.02065
           A4          -0.03673   0.00682   0.04337  -0.01837  -0.01381
           A5          -0.01835   0.00209   0.01896  -0.01378  -0.00459
           A6           0.05495  -0.00894  -0.06231   0.03187   0.01846
           A7          -0.01242  -0.00128   0.00728  -0.01872   0.00161
           D1          -0.00632  -0.01081  -0.01729  -0.04503   0.01866
           D2          -0.00701  -0.01192  -0.01901  -0.04968   0.02057
           D3           0.00557   0.01072   0.01770   0.04386  -0.01854
           D4           0.00488   0.00962   0.01597   0.03920  -0.01664
           D5          -0.00920  -0.00236   0.00247  -0.01880   0.00368
           D6          -0.00790  -0.00115   0.00393  -0.01308   0.00162
                          R6        A1        A2        A3        A4
           R6           0.02482
           A1           0.00414   0.24988
           A2           0.00002   0.01296   0.24827
           A3          -0.00419  -0.00728  -0.01210   0.26428
           A4          -0.00024   0.01953  -0.00346  -0.01775   0.24351
           A5          -0.00045   0.00825  -0.00254  -0.00688  -0.00436
           A6           0.00067  -0.02778   0.00594   0.02467   0.01078
           A7          -0.00096   0.00250  -0.00336  -0.00060  -0.00523
           D1          -0.00300  -0.01040  -0.00793   0.01504  -0.01126
           D2          -0.00331  -0.01144  -0.00875   0.01656  -0.01243
           D3           0.00294   0.01053   0.00772  -0.01505   0.01094
           D4           0.00263   0.00948   0.00690  -0.01353   0.00977
           D5          -0.00106   0.00023  -0.00335   0.00169  -0.00507
           D6          -0.00070   0.00120  -0.00234   0.00013  -0.00361
                          A5        A6        A7        D1        D2
           A5           0.24748
           A6           0.00685   0.23248
           A7          -0.00241   0.00763   0.24878
           D1          -0.00389   0.01520   0.00092   0.01620
           D2          -0.00429   0.01677   0.00101   0.01532   0.01918
           D3           0.00374  -0.01472  -0.00099  -0.01383  -0.01524
           D4           0.00333  -0.01315  -0.00090  -0.01241  -0.01368
           D5          -0.00216   0.00722  -0.00069   0.00255   0.00281
           D6          -0.00162   0.00523  -0.00073   0.00103   0.00113
                          D3        D4        D5        D6
           D3           0.01605
           D4           0.01234   0.01338
           D5          -0.00259  -0.00233   0.03021
           D6          -0.00107  -0.00097  -0.00034   0.02990
 ITU=  1  0
 Use linear search instead of GDIIS.
     Eigenvalues ---    0.00189   0.00515   0.01360   0.02606   0.03454
     Eigenvalues ---    0.06777   0.24996   0.25000   0.25000   0.25842
     Eigenvalues ---    0.30743   0.57177   0.74453   0.98022   1.03672
 RFO step:  Lambda=-5.51868163D-02 EMin= 1.89354520D-03
 Quartic linear search produced a step of  0.68702.
 Maximum step size (   0.505) exceeded in Quadratic search.
    -- Step size scaled by   0.736
 Iteration  1 RMS(Cart)=  0.27737878 RMS(Int)=  0.04473458
 Iteration  2 RMS(Cart)=  0.05519216 RMS(Int)=  0.00516991
 Iteration  3 RMS(Cart)=  0.00115256 RMS(Int)=  0.00511102
 Iteration  4 RMS(Cart)=  0.00000182 RMS(Int)=  0.00511102
 Iteration  5 RMS(Cart)=  0.00000001 RMS(Int)=  0.00511102
 Variable       Old X    -DE/DX   Delta X   Delta X   Delta X     New X
                                 (Linear)    (Quad)   (Total)
    R1        2.38975  -0.04003  -0.04426  -0.17079  -0.21506   2.17469
    R2        2.29222   0.00565  -0.00148   0.00096  -0.00052   2.29170
    R3        3.03817   0.04483   0.07540   0.30131   0.37671   3.41488
    R4        2.36930  -0.02631  -0.05831  -0.19128  -0.24960   2.11970
    R5        2.29606  -0.01191   0.00106  -0.00776  -0.00671   2.28936
    R6        5.73483  -0.00284  -0.07801  -0.04387  -0.12189   5.61295
    A1        2.25231   0.02149   0.03149   0.16693   0.18600   2.43831
    A2        1.90552  -0.00372  -0.02839  -0.04639  -0.08719   1.81833
    A3        2.10686  -0.01526  -0.01558  -0.05275  -0.08074   2.02612
    A4        1.88159  -0.00939  -0.04484  -0.13031  -0.17515   1.70644
    A5        2.09813  -0.00560  -0.02153  -0.06591  -0.08736   2.01077
    A6        2.30298   0.01495   0.06625   0.19571   0.26168   2.56466
    A7        2.05163  -0.00565  -0.01277  -0.04621  -0.05898   1.99265
    D1       -3.09487  -0.00904   0.03210  -0.16261  -0.13253   3.05579
    D2        0.01715  -0.01001   0.02939  -0.17467  -0.14284  -0.12569
    D3       -0.14094   0.00624  -0.11439   0.19703   0.08020  -0.06075
    D4        2.97107   0.00527  -0.11710   0.18496   0.06988   3.04096
    D5        0.94644  -0.00703  -0.07018  -0.10036  -0.17323   0.77321
    D6       -2.16078  -0.00533  -0.06512  -0.07897  -0.14140  -2.30218
         Item               Value     Threshold  Converged?
 Maximum Force            0.044831     0.000450     NO 
 RMS     Force            0.017616     0.000300     NO 
 Maximum Displacement     0.855247     0.001800     NO 
 RMS     Displacement     0.306053     0.001200     NO 
 Predicted change in Energy=-4.606035D-02
 GradGradGradGradGradGradGradGradGradGradGradGradGradGradGradGradGradGrad

                          Input orientation:                          
 ---------------------------------------------------------------------
 Center     Atomic      Atomic             Coordinates (Angstroms)
 Number     Number       Type             X           Y           Z
 ---------------------------------------------------------------------
      1          8           0       -1.931737    3.287703    6.622368
      2          8           0       -0.537228    1.949630    7.712692
      3          6           0       -0.938816    2.836790    6.989955
      4          6           0        0.328332    3.873270    6.224731
      5          8           0        1.222204    3.410150    6.719422
      6          8           0       -0.082453    4.682813    5.422503
      7         55           0        1.178999    0.440744    6.775230
 ---------------------------------------------------------------------
                    Distance matrix (angstroms):
                    1          2          3          4          5
     1  O    0.000000
     2  O    2.218987   0.000000
     3  C    1.150798   1.212714   0.000000
     4  C    2.368314   2.581398   1.807076   0.000000
     5  O    3.157809   2.493052   2.252097   1.121699   0.000000
     6  O    2.608804   3.594730   2.568670   1.211476   2.236918
     7  Cs   4.219623   2.470022   3.205040   3.578956   2.970245
                    6          7
     6  O    0.000000
     7  Cs   4.627773   0.000000
 Stoichiometry    C2CsO4(2)
 Framework group  C1[X(C2CsO4)]
 Deg. of freedom    15
 Full point group                 C1      NOp   1
 Largest Abelian subgroup         C1      NOp   1
 Largest concise Abelian subgroup C1      NOp   1
                         Standard orientation:                         
 ---------------------------------------------------------------------
 Center     Atomic      Atomic             Coordinates (Angstroms)
 Number     Number       Type             X           Y           Z
 ---------------------------------------------------------------------
      1          8           0       -2.478930   -1.453827   -0.378691
      2          8           0       -0.533536   -1.202022    0.658584
      3          6           0       -1.590696   -0.928783    0.130922
      4          6           0       -2.043341    0.820631    0.117310
      5          8           0       -1.172158    1.207326    0.708677
      6          8           0       -3.045907    1.089364   -0.507446
      7         55           0        1.448154    0.064040   -0.097062
 ---------------------------------------------------------------------
 Rotational constants (GHZ):           3.5805838           0.7770271           0.6778098
 Standard basis: def2SVP (5D, 7F)
 There are   116 symmetry adapted cartesian basis functions of A   symmetry.
 There are   108 symmetry adapted basis functions of A   symmetry.
   108 basis functions,   187 primitive gaussians,   116 cartesian basis functions
    27 alpha electrons       26 beta electrons
       nuclear repulsion energy       278.4338425667 Hartrees.
 NAtoms=    7 NActive=    7 NUniq=    7 SFac= 1.00D+00 NAtFMM=   60 NAOKFM=F Big=F
 Integral buffers will be    131072 words long.
 Raffenetti 2 integral format.
 Two-electron integral symmetry is turned on.
 ------------------------------------------------------------------------------
 Polarizable Continuum Model (PCM)
 =================================
 Model                : PCM.
 Atomic radii         : UFF (Universal Force Field).
 Polarization charges : Total charges.
 Charge compensation  : None.
 Solution method      : On-the-fly selection.
 Cavity type          : Scaled VdW (van der Waals Surface) (Alpha=1.100).
 Cavity algorithm     : GePol (No added spheres)
                        Default sphere list used, NSphG=    7.
                        Lebedev-Laikov grids with approx.  5.0 points / Ang**2.
                        Smoothing algorithm: York/Karplus (Gamma=1.0000).
                        Polarization charges: spherical gaussians, with
                                              point-specific exponents (IZeta= 3).
                        Self-potential: point-specific (ISelfS= 7).
                        Self-field    : sphere-specific E.n sum rule (ISelfD= 2).
 1st derivatives      : Analytical E(r).r(x)/FMM algorithm (CHGder, D1EAlg=3).
                        Cavity 1st derivative terms included.
 Solvent              : Water, Eps=  78.355300 Eps(inf)=   1.777849
[...]
 Iteration  3 RMS(Cart)=  0.00000001 RMS(Int)=  0.00001008
 Variable       Old X    -DE/DX   Delta X   Delta X   Delta X     New X
                                 (Linear)    (Quad)   (Total)
    R1        2.25603   0.00008   0.00011  -0.00077  -0.00066   2.25537
    R2        2.27937  -0.00031   0.00004  -0.00080  -0.00076   2.27861
    R3        3.91824  -0.00046  -0.00088   0.00961   0.00873   3.92698
    R4        2.28028  -0.00034   0.00011  -0.00056  -0.00044   2.27983
    R5        2.25811  -0.00031  -0.00003   0.00023   0.00020   2.25831
    R6        5.65530  -0.00013  -0.00085   0.00029  -0.00056   5.65475
    A1        2.53446   0.00031  -0.00028   0.00406   0.00378   2.53824
    A2        1.89026  -0.00121   0.00012  -0.00668  -0.00656   1.88370
    A3        1.85846   0.00090   0.00016   0.00262   0.00278   1.86124
    A4        1.86792   0.00011   0.00027  -0.00013   0.00012   1.86804
    A5        1.88655  -0.00104  -0.00049  -0.00114  -0.00165   1.88489
    A6        2.52869   0.00093   0.00022   0.00136   0.00155   2.53025
    A7        2.18591   0.00128   0.00012   0.00683   0.00695   2.19286
    D1        2.75467   0.00020  -0.00388   0.01077   0.00689   2.76156
    D2       -0.39309   0.00036  -0.00345   0.01992   0.01646  -0.37663
    D3       -0.38601  -0.00039  -0.00376   0.01087   0.00712  -0.37890
    D4        2.74941  -0.00022  -0.00334   0.02003   0.01669   2.76610
    D5        0.71526  -0.00030   0.00178  -0.01985  -0.01807   0.69719
    D6       -2.41614  -0.00055   0.00107  -0.03496  -0.03390  -2.45004
         Item               Value     Threshold  Converged?
 Maximum Force            0.001280     0.000450     NO 
 RMS     Force            0.000619     0.000300     NO 
 Maximum Displacement     0.027370     0.001800     NO 
 RMS     Displacement     0.011995     0.001200     NO 
 Predicted change in Energy=-2.273211D-05
 Optimization stopped.
    -- Number of steps exceeded,  NStep=  10
    -- Flag reset to prevent archiving.
                           ----------------------------
                           ! Non-Optimized Parameters !
                           ! (Angstroms and Degrees)  !
 --------------------------                            --------------------------
 ! Name  Definition              Value          Derivative Info.                !
 --------------------------------------------------------------------------------
 ! R1    R(1,3)                  1.1935         -DE/DX =    0.0001              !
 ! R2    R(2,3)                  1.2058         -DE/DX =   -0.0003              !
 ! R3    R(3,4)                  2.0781         -DE/DX =   -0.0005              !
 ! R4    R(4,5)                  1.2064         -DE/DX =   -0.0003              !
 ! R5    R(4,6)                  1.195          -DE/DX =   -0.0003              !
 ! R6    R(5,7)                  2.9924         -DE/DX =   -0.0001              !
 ! A1    A(1,3,2)              145.4306         -DE/DX =    0.0003              !
 ! A2    A(1,3,4)              107.928          -DE/DX =   -0.0012              !
 ! A3    A(2,3,4)              106.6413         -DE/DX =    0.0009              !
 ! A4    A(3,4,5)              107.0307         -DE/DX =    0.0001              !
 ! A5    A(3,4,6)              107.9964         -DE/DX =   -0.001               !
 ! A6    A(5,4,6)              144.9725         -DE/DX =    0.0009              !
 ! A7    A(4,5,7)              125.6418         -DE/DX =    0.0013              !
 ! D1    D(1,3,4,5)            158.2257         -DE/DX =    0.0002              !
 ! D2    D(1,3,4,6)            -21.5794         -DE/DX =    0.0004              !
 ! D3    D(2,3,4,5)            -21.7092         -DE/DX =   -0.0004              !
 ! D4    D(2,3,4,6)            158.4857         -DE/DX =   -0.0002              !
 ! D5    D(3,4,5,7)             39.9463         -DE/DX =   -0.0003              !
 ! D6    D(6,4,5,7)           -140.3767         -DE/DX =   -0.0005              !
 --------------------------------------------------------------------------------
 GradGradGradGradGradGradGradGradGradGradGradGradGradGradGradGradGradGrad

                          Input orientation:                          
 ---------------------------------------------------------------------
 Center     Atomic      Atomic             Coordinates (Angstroms)
 Number     Number       Type             X           Y           Z
 ---------------------------------------------------------------------
      1          8           0       -2.152303    3.647431    7.007901
      2          8           0       -0.840045    1.809188    7.387779
      3          6           0       -1.223497    2.897984    7.037941
      4          6           0        0.391764    3.826022    6.127530
      5          8           0        1.388458    3.285073    6.539878
      6          8           0       -0.029749    4.675686    5.400703
      7         55           0        1.704673    0.339716    6.965168
 ---------------------------------------------------------------------
                    Distance matrix (angstroms):
                    1          2          3          4          5
     1  O    0.000000
     2  O    2.290299   0.000000
     3  C    1.193841   1.206191   0.000000
     4  C    2.698004   2.678283   2.073444   0.000000
     5  O    3.589894   2.804176   2.687046   1.206671   0.000000
     6  O    2.854055   3.580763   2.695517   1.194940   2.289724
     7  Cs   5.081247   2.968760   3.888985   3.818337   2.992657
                    6          7
     6  O    0.000000
     7  Cs   4.925080   0.000000
 Stoichiometry    C2CsO4(2)
 Framework group  C1[X(C2CsO4)]
 Deg. of freedom    15
 Full point group                 C1      NOp   1
 Largest Abelian subgroup         C1      NOp   1
 Largest concise Abelian subgroup C1      NOp   1
                         Standard orientation:                         
 ---------------------------------------------------------------------
 Center     Atomic      Atomic             Coordinates (Angstroms)
 Number     Number       Type             X           Y           Z
 ---------------------------------------------------------------------
      1          8           0       -3.252922   -1.356787    0.006189
      2          8           0       -0.964765   -1.415636    0.085823
      3          6           0       -2.106126   -1.027462    0.046930
      4          6           0       -2.023568    1.044311    0.057611
      5          8           0       -0.957465    1.352946    0.531133
      6          8           0       -3.041596    1.458658   -0.411234
      7         55           0        1.645675   -0.007537   -0.042228
 ---------------------------------------------------------------------
 Rotational constants (GHZ):           3.1944870           0.6237165           0.5301865

 **********************************************************************

            Population analysis using the SCF density.

 **********************************************************************

 Orbital symmetries:
 Alpha Orbitals:
       Occupied  (A) (A) (A) (A) (A) (A) (A) (A) (A) (A) (A) (A)
                 (A) (A) (A) (A) (A) (A) (A) (A) (A) (A) (A) (A)
                 (A) (A) (A)
       Virtual   (A) (A) (A) (A) (A) (A) (A) (A) (A) (A) (A) (A)
                 (A) (A) (A) (A) (A) (A) (A) (A) (A) (A) (A) (A)
                 (A) (A) (A) (A) (A) (A) (A) (A) (A) (A) (A) (A)
                 (A) (A) (A) (A) (A) (A) (A) (A) (A) (A) (A) (A)
                 (A) (A) (A) (A) (A) (A) (A) (A) (A) (A) (A) (A)
                 (A) (A) (A) (A) (A) (A) (A) (A) (A) (A) (A) (A)
                 (A) (A) (A) (A) (A) (A) (A) (A) (A)
 Beta  Orbitals:
       Occupied  (A) (A) (A) (A) (A) (A) (A) (A) (A) (A) (A) (A)
                 (A) (A) (A) (A) (A) (A) (A) (A) (A) (A) (A) (A)
                 (A) (A)
       Virtual   (A) (A) (A) (A) (A) (A) (A) (A) (A) (A) (A) (A)
                 (A) (A) (A) (A) (A) (A) (A) (A) (A) (A) (A) (A)
                 (A) (A) (A) (A) (A) (A) (A) (A) (A) (A) (A) (A)
                 (A) (A) (A) (A) (A) (A) (A) (A) (A) (A) (A) (A)
                 (A) (A) (A) (A) (A) (A) (A) (A) (A) (A) (A) (A)
                 (A) (A) (A) (A) (A) (A) (A) (A) (A) (A) (A) (A)
                 (A) (A) (A) (A) (A) (A) (A) (A) (A) (A)
 The electronic state is 2-A.
 Alpha  occ. eigenvalues --  -19.64090 -19.64021 -19.63922 -19.63863 -10.68594
 Alpha  occ. eigenvalues --  -10.68508  -1.21070  -1.19411  -1.13818  -1.12774
 Alpha  occ. eigenvalues --   -1.09952  -0.64016  -0.59920  -0.59453  -0.55869
 Alpha  occ. eigenvalues --   -0.55744  -0.55612  -0.54386  -0.53748  -0.53238
 Alpha  occ. eigenvalues --   -0.51969  -0.48482  -0.40634  -0.38053  -0.37551
 Alpha  occ. eigenvalues --   -0.37112  -0.23194
 Alpha virt. eigenvalues --   -0.01106   0.01244   0.01408   0.02107   0.05091
 Alpha virt. eigenvalues --    0.05808   0.05950   0.06462   0.07022   0.07883
 Alpha virt. eigenvalues --    0.08456   0.13706   0.14325   0.19946   0.20184
 Alpha virt. eigenvalues --    0.20320   0.21562   0.21675   0.29903   0.29989
 Alpha virt. eigenvalues --    0.32977   0.34339   0.36186   0.46590   0.50103
 Alpha virt. eigenvalues --    0.51543   0.56293   0.59560   0.61558   0.61654
 Alpha virt. eigenvalues --    0.66888   0.69827   0.81008   0.82109   0.96389
 Alpha virt. eigenvalues --    0.98928   1.03133   1.03694   1.05537   1.12876
 Alpha virt. eigenvalues --    1.15115   1.19277   1.20369   1.23400   1.30936
 Alpha virt. eigenvalues --    1.34007   1.37216   1.43822   1.55085   1.57815
 Alpha virt. eigenvalues --    1.67215   1.67833   1.68312   1.71357   1.79651
 Alpha virt. eigenvalues --    1.97238   1.98598   2.03794   2.34092   2.43043
 Alpha virt. eigenvalues --    2.68188   2.68526   2.69069   2.72209   2.73196
 Alpha virt. eigenvalues --    2.73936   2.78037   2.78851   2.97154   2.97709
 Alpha virt. eigenvalues --    3.28500   3.30613   3.31396   3.38619   3.45601
 Alpha virt. eigenvalues --    3.46304   3.63285   3.65824   3.82425   3.87516
 Alpha virt. eigenvalues --   19.78188
  Beta  occ. eigenvalues --  -19.63718 -19.63649 -19.63507 -19.63443 -10.68464
  Beta  occ. eigenvalues --  -10.68374  -1.19861  -1.18213  -1.12363  -1.11372
  Beta  occ. eigenvalues --   -1.09925  -0.61541  -0.59034  -0.58481  -0.55612
  Beta  occ. eigenvalues --   -0.55332  -0.54814  -0.53605  -0.52526  -0.52308
  Beta  occ. eigenvalues --   -0.51335  -0.45244  -0.37824  -0.37572  -0.37060
  Beta  occ. eigenvalues --   -0.34063
  Beta virt. eigenvalues --   -0.05569  -0.00584   0.01699   0.01840   0.02774
  Beta virt. eigenvalues --    0.05499   0.06028   0.06084   0.06485   0.07383
  Beta virt. eigenvalues --    0.08438   0.08974   0.14425   0.18971   0.20085
  Beta virt. eigenvalues --    0.20281   0.20441   0.21701   0.22066   0.30289
  Beta virt. eigenvalues --    0.30456   0.33024   0.34273   0.36665   0.47235
  Beta virt. eigenvalues --    0.50113   0.51701   0.56142   0.59329   0.62101
  Beta virt. eigenvalues --    0.62185   0.67346   0.71804   0.82041   0.83347
  Beta virt. eigenvalues --    0.97684   0.99449   1.03648   1.04593   1.06000
  Beta virt. eigenvalues --    1.13660   1.16495   1.19614   1.21343   1.23674
  Beta virt. eigenvalues --    1.31553   1.34545   1.37565   1.43497   1.56732
  Beta virt. eigenvalues --    1.58701   1.68287   1.68900   1.69279   1.71973
  Beta virt. eigenvalues --    1.80260   1.98481   1.99945   2.06952   2.35452
  Beta virt. eigenvalues --    2.44813   2.68794   2.69143   2.69770   2.72870
  Beta virt. eigenvalues --    2.74058   2.74768   2.78985   2.79907   2.97324
  Beta virt. eigenvalues --    2.97897   3.29139   3.32057   3.32188   3.40112
  Beta virt. eigenvalues --    3.46436   3.47127   3.63801   3.66542   3.83379
  Beta virt. eigenvalues --    3.88671  19.78189
          Condensed to atoms (all electrons):
               1          2          3          4          5          6
     1  O    7.779980  -0.046155   0.590904  -0.049275   0.001330   0.002444
     2  O   -0.046155   7.867405   0.495948  -0.053042   0.002824   0.001312
     3  C    0.590904   0.495948   4.639638   0.177563  -0.051221  -0.048154
     4  C   -0.049275  -0.053042   0.177563   4.664104   0.487907   0.584348
     5  O    0.001330   0.002824  -0.051221   0.487907   7.875380  -0.046535
     6  O    0.002444   0.001312  -0.048154   0.584348  -0.046535   7.786016
     7  Cs  -0.001953   0.048035   0.008706   0.008081   0.047525   0.000252
               7
     1  O   -0.001953
     2  O    0.048035
     3  C    0.008706
     4  C    0.008081
     5  O    0.047525
     6  O    0.000252
     7  Cs   8.065787
          Atomic-Atomic Spin Densities.
               1          2          3          4          5          6
     1  O    0.250848   0.013471  -0.096940  -0.035535   0.001453   0.013140
     2  O    0.013471   0.233517  -0.097782  -0.039651   0.014528   0.001474
     3  C   -0.096940  -0.097782   0.274479   0.194282  -0.038258  -0.034908
     4  C   -0.035535  -0.039651   0.194282   0.286353  -0.101969  -0.097377
     5  O    0.001453   0.014528  -0.038258  -0.101969   0.236905   0.013498
     6  O    0.013140   0.001474  -0.034908  -0.097377   0.013498   0.252495
     7  Cs  -0.004656  -0.003909   0.017801   0.018125  -0.004267  -0.004727
               7
     1  O   -0.004656
     2  O   -0.003909
     3  C    0.017801
     4  C    0.018125
     5  O   -0.004267
     6  O   -0.004727
     7  Cs   0.009819
 Mulliken charges and spin densities:
               1          2
     1  O   -0.277275   0.141781
     2  O   -0.316328   0.121648
     3  C    0.186615   0.218674
     4  C    0.180313   0.224229
     5  O   -0.317209   0.121890
     6  O   -0.279682   0.143594
     7  Cs   0.823567   0.028185
 Sum of Mulliken charges =  -0.00000   1.00000
 Mulliken charges and spin densities with hydrogens summed into heavy atoms:
               1          2
     1  O   -0.277275   0.141781
     2  O   -0.316328   0.121648
     3  C    0.186615   0.218674
     4  C    0.180313   0.224229
     5  O   -0.317209   0.121890
     6  O   -0.279682   0.143594
     7  Cs   0.823567   0.028185
 Electronic spatial extent (au):  <R**2>=           1303.1822
 Charge=             -0.0000 electrons
 Dipole moment (field-independent basis, Debye):
    X=             15.8929    Y=             -0.1054    Z=             -0.5068  Tot=             15.9013
 Quadrupole moment (field-independent basis, Debye-Ang):
   XX=            -65.9680   YY=            -61.3224   ZZ=            -49.9829
   XY=              0.0671   XZ=             -2.3932   YZ=             -0.0693
 Traceless Quadrupole moment (field-independent basis, Debye-Ang):
   XX=             -6.8768   YY=             -2.2313   ZZ=              9.1082
   XY=              0.0671   XZ=             -2.3932   YZ=             -0.0693
 Octapole moment (field-independent basis, Debye-Ang**2):
  XXX=            235.8544  YYY=             -0.9220  ZZZ=             -3.4563  XYY=             61.1135
  XXY=              0.7606  XXZ=              7.9350  XZZ=             38.9871  YZZ=             -1.7731
  YYZ=             -1.5542  XYZ=             -3.1533
 Hexadecapole moment (field-independent basis, Debye-Ang**3):
 XXXX=          -1639.4703 YYYY=           -406.4134 ZZZZ=            -69.2090 XXXY=            -10.9961
 XXXZ=            -33.6797 YYYX=              1.4418 YYYZ=             -0.0805 ZZZX=             -4.1106
 ZZZY=             -0.7207 XXYY=           -346.8908 XXZZ=           -229.4805 YYZZ=            -75.9057
 XXYZ=             12.4798 YYXZ=             -5.6408 ZZXY=              2.5679
 N-N= 2.596496156407D+02 E-N=-1.447882758256D+03  KE= 3.796924693284D+02
                          Isotropic Fermi Contact Couplings
        Atom                 a.u.       MegaHertz       Gauss      10(-4) cm-1
     1  O(17)              0.10868     -65.88200     -23.50834     -21.97587
     2  O(17)              0.10410     -63.10340     -22.51686     -21.04903
     3  C(13)              0.06925      77.85408      27.78027      25.96933
     4  C(13)              0.07277      81.80735      29.19090      27.28799
     5  O(17)              0.10565     -64.04648     -22.85338     -21.36361
     6  O(17)              0.11075     -67.13641     -23.95594     -22.39430
 --------------------------------------------------------
       Center         ----  Spin Dipole Couplings  ----
                      3XX-RR        3YY-RR        3ZZ-RR
 --------------------------------------------------------
     1   Atom       -0.308344      0.682633     -0.374289
     2   Atom       -0.267023      0.608680     -0.341657
     3   Atom       -0.101715      0.218093     -0.116379
     4   Atom       -0.105340      0.221816     -0.116476
     5   Atom       -0.239238      0.574103     -0.334864
     6   Atom       -0.343718      0.718555     -0.374837
     7   Atom        0.004709     -0.001795     -0.002913
 --------------------------------------------------------
                        XY            XZ            YZ
 --------------------------------------------------------
     1   Atom        0.218151      0.010961      0.064678
     2   Atom       -0.214687      0.009460     -0.056862
     3   Atom        0.014558      0.001499      0.001972
     4   Atom        0.010496      0.004360     -0.002210
     5   Atom        0.276820      0.028633      0.049046
     6   Atom       -0.152108      0.014698     -0.022066
     7   Atom        0.000019     -0.000483      0.000120
 --------------------------------------------------------


 ---------------------------------------------------------------------------------
              Anisotropic Spin Dipole Couplings in Principal Axis System
 ---------------------------------------------------------------------------------

       Atom             a.u.   MegaHertz   Gauss  10(-4) cm-1        Axes

              Baa    -0.3784    27.384     9.771     9.134  0.0918 -0.0794  0.9926
     1 O(17)  Bbb    -0.3540    25.613     9.139     8.543  0.9744 -0.1984 -0.1060
              Bcc     0.7324   -52.997   -18.911   -17.678  0.2054  0.9769  0.0591
 
              Baa    -0.3454    24.994     8.919     8.337  0.1098  0.0837  0.9904
     2 O(17)  Bbb    -0.3164    22.892     8.168     7.636  0.9681  0.2169 -0.1257
              Bcc     0.6618   -47.886   -17.087   -15.973 -0.2254  0.9726 -0.0572
 
              Baa    -0.1165   -15.637    -5.580    -5.216 -0.0991 -0.0016  0.9951
     3 C(13)  Bbb    -0.1022   -13.719    -4.895    -4.576  0.9940 -0.0458  0.0990
              Bcc     0.2188    29.356    10.475     9.792  0.0454  0.9990  0.0061
 
              Baa    -0.1181   -15.844    -5.654    -5.285 -0.3361  0.0165  0.9417
     4 C(13)  Bbb    -0.1041   -13.968    -4.984    -4.659  0.9413 -0.0280  0.3364
              Bcc     0.2222    29.812    10.638     9.944  0.0319  0.9995 -0.0061
 
              Baa    -0.3458    25.019     8.928     8.346 -0.5098  0.1079  0.8535
     5 O(17)  Bbb    -0.3167    22.915     8.176     7.643  0.8082 -0.2797  0.5182
              Bcc     0.6624   -47.934   -17.104   -15.989  0.2946  0.9540  0.0554
 
              Baa    -0.3828    27.699     9.884     9.239 -0.5411 -0.0579  0.8390
     6 O(17)  Bbb    -0.3576    25.878     9.234     8.632  0.8294  0.1284  0.5437
              Bcc     0.7404   -53.576   -19.117   -17.871 -0.1392  0.9900 -0.0214
 

 ---------------------------------------------------------------------------------



 The cat could very well be man's best friend
 but would never stoop to admitting it.
                               -- Doug Larson
 Error termination request processed by link 9999.
 Error termination via Lnk1e in /home/pub/g16/l9999.exe at Wed Apr 12 07:37:56 2023.
 Job cpu time:       0 days  1 hours 31 minutes 47.4 seconds.
 Elapsed time:       0 days  0 hours  2 minutes 16.4 seconds.
 File lengths (MBytes):  RWF=     39 Int=      0 D2E=      0 Chk=      4 Scr=      1
