 Entering Gaussian System, Link 0=g16
 Initial command:
 /home/pub/g16/l1.exe "/home/zz1/gauss/SCRDIR/Gau-2740552.inp" -scrdir="/home/zz1/gauss/SCRDIR/"
 Entering Link 1 = /home/pub/g16/l1.exe PID=   2740554.
  
 Copyright (c) 1988,1990,1992,1993,1995,1998,2003,2009,2016,
            Gaussian, Inc.  All Rights Reserved.
  
 This is part of the Gaussian(R) 16 program.  It is based on
 the Gaussian(R) 09 system (copyright 2009, Gaussian, Inc.),
 the Gaussian(R) 03 system (copyright 2003, Gaussian, Inc.),
 the Gaussian(R) 98 system (copyright 1998, Gaussian, Inc.),
 the Gaussian(R) 94 system (copyright 1995, Gaussian, Inc.),
 the Gaussian 92(TM) system (copyright 1992, Gaussian, Inc.),
 the Gaussian 90(TM) system (copyright 1990, Gaussian, Inc.),
 the Gaussian 88(TM) system (copyright 1988, Gaussian, Inc.),
 the Gaussian 86(TM) system (copyright 1986, Carnegie Mellon
 University), and the Gaussian 82(TM) system (copyright 1983,
 Carnegie Mellon University). Gaussian is a federally registered
 trademark of Gaussian, Inc.
  
 This software contains proprietary and confidential information,
 including trade secrets, belonging to Gaussian, Inc.
  
 This software is provided under written license and may be
 used, copied, transmitted, or stored only in accord with that
 written license.
  
 The following legend is applicable only to US Government
 contracts under FAR:
  
                    RESTRICTED RIGHTS LEGEND
  
 Use, reproduction and disclosure by the US Government is
 subject to restrictions as set forth in subparagraphs (a)
 and (c) of the Commercial Computer Software - Restricted
 Rights clause in FAR 52.227-19.
  
 Gaussian, Inc.
 340 Quinnipiac St., Bldg. 40, Wallingford CT 06492
  
  
 ---------------------------------------------------------------
 Warning -- This program may not be used in any manner that
 competes with the business of Gaussian, Inc. or will provide
 assistance to any competitor of Gaussian, Inc.  The licensee
 of this program is prohibited from giving any competitor of
 Gaussian, Inc. access to this program.  By using this program,
 the user acknowledges that Gaussian, Inc. is engaged in the
 business of creating and licensing software in the field of
 computational chemistry and represents and warrants to the
 licensee that it is not a competitor of Gaussian, Inc. and that
 it will not use this program in any manner prohibited above.
 ---------------------------------------------------------------
  

 Cite this work as:
 Gaussian 16, Revision A.03,
 M. J. Frisch, G. W. Trucks, H. B. Schlegel, G. E. Scuseria, 
 M. A. Robb, J. R. Cheeseman, G. Scalmani, V. Barone, 
 G. A. Petersson, H. Nakatsuji, X. Li, M. Caricato, A. V. Marenich, 
 J. Bloino, B. G. Janesko, R. Gomperts, B. Mennucci, H. P. Hratchian, 
 J. V. Ortiz, A. F. Izmaylov, J. L. Sonnenberg, D. Williams-Young, 
 F. Ding, F. Lipparini, F. Egidi, J. Goings, B. Peng, A. Petrone, 
 T. Henderson, D. Ranasinghe, V. G. Zakrzewski, J. Gao, N. Rega, 
 G. Zheng, W. Liang, M. Hada, M. Ehara, K. Toyota, R. Fukuda, 
 J. Hasegawa, M. Ishida, T. Nakajima, Y. Honda, O. Kitao, H. Nakai, 
 T. Vreven, K. Throssell, J. A. Montgomery, Jr., J. E. Peralta, 
 F. Ogliaro, M. J. Bearpark, J. J. Heyd, E. N. Brothers, K. N. Kudin, 
 V. N. Staroverov, T. A. Keith, R. Kobayashi, J. Normand, 
 K. Raghavachari, A. P. Rendell, J. C. Burant, S. S. Iyengar, 
 J. Tomasi, M. Cossi, J. M. Millam, M. Klene, C. Adamo, R. Cammi, 
 J. W. Ochterski, R. L. Martin, K. Morokuma, O. Farkas, 
 J. B. Foresman, and D. J. Fox, Gaussian, Inc., Wallingford CT, 2016.
 
 ******************************************
 Gaussian 16:  ES64L-G16RevA.03 25-Dec-2016
                26-Apr-2023 
 ******************************************
 %chk=/home/zz1/proj/gauss/new/chk/Ba-JEBHIK-5/61.chk
 %CPU=0-48
 SetSPE:  set environment variable "MP_BIND" = "yes"
 SetSPE:  set environment variable "MP_BLIST" = "0,1,2,3,4,5,6,7,8,9,10,11,12,13,14,15,16,17,18,19,20,21,22,23,24,25,26,27,28,29,30,31,32,33,34,35,36,37,38,39,40,41,42,43,44,45,46,47,48"
 Will use up to   49 processors via shared memory.
 ----------------------------------------------------
 # M062X/Def2SVP opt(MaxCyc=10)/freq SCRF pop(Always)
 ----------------------------------------------------
 1/6=10,18=20,19=15,26=3,38=1/1,3;
 2/9=110,12=2,17=6,18=5,40=1/2;
 3/5=43,7=101,11=2,25=1,30=1,70=2201,71=1,74=-55/1,2,3;
 4//1;
 5/5=2,38=5/2;
 6/7=2,8=2,9=2,10=2,28=1/1;
 7//1,2,3,16;
 1/6=10,18=20,19=15,26=3/3(2);
 2/9=110/2;
 99//99;
 2/9=110/2;
 3/5=43,7=101,11=2,25=1,30=1,70=2205,71=1,74=-55/1,2,3;
 4/5=5,16=3,69=1/1;
 5/5=2,38=5/2;
 6/7=2,8=2,9=2,10=2,28=1/1;
 7//1,2,3,16;
 1/6=10,18=20,19=15,26=3/3(-6);
 2/9=110/2;
 6/7=2,8=2,9=2,10=2,19=2,28=1/1;
 99/9=1/99;
 -----------
 Ba-JEBHIK-5
 -----------
 Symbolic Z-matrix:
 Charge =  0 Multiplicity = 1
 Ba                    14.74844   0.7791    2.1698 
 O                     13.21609   3.07962   1.64921 
 C                     12.11508   3.30458   1.34041 
 N                     11.48915   3.16536   0.13583 
 N                     10.31231   3.40696  -0.08351 
 N                     9.8947    3.88526   1.14878 
 N                     11.05879   3.91471   2.0127 
 H                     12.00565   2.64753  -0.7062 
 H                     9.67611   3.20964  -0.77504 
 

 GradGradGradGradGradGradGradGradGradGradGradGradGradGradGradGradGradGrad
 Berny optimization.
 Initialization pass.
                           ----------------------------
                           !    Initial Parameters    !
                           ! (Angstroms and Degrees)  !
 --------------------------                            --------------------------
 ! Name  Definition              Value          Derivative Info.                !
 --------------------------------------------------------------------------------
 ! R1    R(1,2)                  2.8127         estimate D2E/DX2                !
 ! R2    R(2,3)                  1.1654         estimate D2E/DX2                !
 ! R3    R(3,4)                  1.3646         estimate D2E/DX2                !
 ! R4    R(3,7)                  1.3928         estimate D2E/DX2                !
 ! R5    R(4,5)                  1.2212         estimate D2E/DX2                !
 ! R6    R(4,8)                  1.1153         estimate D2E/DX2                !
 ! R7    R(5,6)                  1.3863         estimate D2E/DX2                !
 ! R8    R(5,9)                  0.9602         estimate D2E/DX2                !
 ! R9    R(6,7)                  1.4499         estimate D2E/DX2                !
 ! A1    A(1,2,3)              136.187          estimate D2E/DX2                !
 ! A2    A(2,3,4)              130.3563         estimate D2E/DX2                !
 ! A3    A(2,3,7)              132.3089         estimate D2E/DX2                !
 ! A4    A(4,3,7)               97.0599         estimate D2E/DX2                !
 ! A5    A(3,4,5)              125.4763         estimate D2E/DX2                !
 ! A6    A(3,4,8)              120.0913         estimate D2E/DX2                !
 ! A7    A(5,4,8)              113.7355         estimate D2E/DX2                !
 ! A8    A(4,5,6)              101.4726         estimate D2E/DX2                !
 ! A9    A(4,5,9)              136.6529         estimate D2E/DX2                !
 ! A10   A(6,5,9)              120.7659         estimate D2E/DX2                !
 ! A11   A(5,6,7)              107.1457         estimate D2E/DX2                !
 ! A12   A(3,7,6)              108.2022         estimate D2E/DX2                !
 ! D1    D(1,2,3,4)            -74.8985         estimate D2E/DX2                !
 ! D2    D(1,2,3,7)            112.5534         estimate D2E/DX2                !
 ! D3    D(2,3,4,5)            178.5135         estimate D2E/DX2                !
 ! D4    D(2,3,4,8)              8.6993         estimate D2E/DX2                !
 ! D5    D(7,3,4,5)             -7.0324         estimate D2E/DX2                !
 ! D6    D(7,3,4,8)           -176.8466         estimate D2E/DX2                !
 ! D7    D(2,3,7,6)           -178.2073         estimate D2E/DX2                !
 ! D8    D(4,3,7,6)              7.508          estimate D2E/DX2                !
 ! D9    D(3,4,5,6)              2.7927         estimate D2E/DX2                !
 ! D10   D(3,4,5,9)           -164.48           estimate D2E/DX2                !
 ! D11   D(8,4,5,6)            173.1708         estimate D2E/DX2                !
 ! D12   D(8,4,5,9)              5.8981         estimate D2E/DX2                !
 ! D13   D(4,5,6,7)              2.8672         estimate D2E/DX2                !
 ! D14   D(9,5,6,7)            172.7307         estimate D2E/DX2                !
 ! D15   D(5,6,7,3)             -7.1118         estimate D2E/DX2                !
 --------------------------------------------------------------------------------
 Trust Radius=3.00D-01 FncErr=1.00D-07 GrdErr=1.00D-06 EigMax=2.50D+02 EigMin=1.00D-04
 Number of steps in this run=     10 maximum allowed number of steps=    100.
 GradGradGradGradGradGradGradGradGradGradGradGradGradGradGradGradGradGrad

                          Input orientation:                          
 ---------------------------------------------------------------------
 Center     Atomic      Atomic             Coordinates (Angstroms)
 Number     Number       Type             X           Y           Z
 ---------------------------------------------------------------------
      1         56           0       14.748440    0.779100    2.169800
      2          8           0       13.216090    3.079620    1.649210
      3          6           0       12.115080    3.304580    1.340410
      4          7           0       11.489150    3.165360    0.135830
      5          7           0       10.312310    3.406960   -0.083510
      6          7           0        9.894700    3.885260    1.148780
      7          7           0       11.058790    3.914710    2.012700
      8          1           0       12.005650    2.647530   -0.706200
      9          1           0        9.676110    3.209640   -0.775040
 ---------------------------------------------------------------------
                    Distance matrix (angstroms):
                    1          2          3          4          5
     1  Ba   0.000000
     2  O    2.812739   0.000000
     3  C    3.741727   1.165413   0.000000
     4  N    4.522637   2.297823   1.364618   0.000000
     5  N    5.626927   3.397265   2.299567   1.221242   0.000000
     6  N    5.852308   3.454145   2.303041   2.021533   1.386257
     7  N    4.844610   2.341675   1.392832   2.066247   2.282354
     8  H    4.391504   2.683249   2.152278   1.115318   1.957518
     9  H    6.348869   4.292476   3.229972   2.029473   0.960156
                    6          7          8          9
     6  N    0.000000
     7  N    1.449942   0.000000
     8  H    3.070674   3.145585   0.000000
     9  H    2.050689   3.190677   2.397387   0.000000
 Stoichiometry    CH2BaN4O
 Framework group  C1[X(CH2BaN4O)]
 Deg. of freedom    21
 Full point group                 C1      NOp   1
 Largest Abelian subgroup         C1      NOp   1
 Largest concise Abelian subgroup C1      NOp   1
                         Standard orientation:                         
 ---------------------------------------------------------------------
 Center     Atomic      Atomic             Coordinates (Angstroms)
 Number     Number       Type             X           Y           Z
 ---------------------------------------------------------------------
      1         56           0        1.967519    0.050852   -0.081047
      2          8           0       -0.652210   -0.550876    0.747474
      3          6           0       -1.727642   -0.358490    0.341738
      4          7           0       -2.476658    0.782131    0.329769
      5          7           0       -3.596105    0.889980   -0.146297
      6          7           0       -3.847120   -0.409774   -0.557806
      7          7           0       -2.708787   -1.212808   -0.155732
      8          1           0       -2.017909    1.755472    0.623181
      9          1           0       -4.178920    1.608066   -0.404323
 ---------------------------------------------------------------------
 Rotational constants (GHZ):           6.9065343           0.4286332           0.4157193
 Standard basis: def2SVP (5D, 7F)
 There are   125 symmetry adapted cartesian basis functions of A   symmetry.
 There are   117 symmetry adapted basis functions of A   symmetry.
   117 basis functions,   218 primitive gaussians,   125 cartesian basis functions
    27 alpha electrons       27 beta electrons
       nuclear repulsion energy       286.5804940839 Hartrees.
 NAtoms=    9 NActive=    9 NUniq=    9 SFac= 1.00D+00 NAtFMM=   60 NAOKFM=F Big=F
 Integral buffers will be    131072 words long.
 Raffenetti 2 integral format.
 Two-electron integral symmetry is turned on.
 ------------------------------------------------------------------------------
 Polarizable Continuum Model (PCM)
 =================================
 Model                : PCM.
 Atomic radii         : UFF (Universal Force Field).
 Polarization charges : Total charges.
 Charge compensation  : None.
 Solution method      : On-the-fly selection.
 Cavity type          : Scaled VdW (van der Waals Surface) (Alpha=1.100).
 Cavity algorithm     : GePol (No added spheres)
                        Default sphere list used, NSphG=    9.
                        Lebedev-Laikov grids with approx.  5.0 points / Ang**2.
                        Smoothing algorithm: York/Karplus (Gamma=1.0000).
                        Polarization charges: spherical gaussians, with
                                              point-specific exponents (IZeta= 3).
                        Self-potential: point-specific (ISelfS= 7).
                        Self-field    : sphere-specific E.n sum rule (ISelfD= 2).
 1st derivatives      : Analytical E(r).r(x)/FMM algorithm (CHGder, D1EAlg=3).
                        Cavity 1st derivative terms included.
 Solvent              : Water, Eps=  78.355300 Eps(inf)=   1.777849
 ------------------------------------------------------------------------------
 Spheres list:
 ISph  on   Nord     Re0    Alpha      Xe            Ye            Ze
    1  Ba      1    1.8515  1.100      1.967519      0.050852     -0.081047
    2   O      2    1.7500  1.100     -0.652210     -0.550876      0.747474
    3   C      3    1.9255  1.100     -1.727642     -0.358490      0.341738
    4   N      4    1.8300  1.100     -2.476658      0.782131      0.329769
    5   N      5    1.8300  1.100     -3.596105      0.889980     -0.146297
    6   N      6    1.8300  1.100     -3.847120     -0.409774     -0.557806
    7   N      7    1.8300  1.100     -2.708787     -1.212808     -0.155732
    8   H      8    1.4430  1.100     -2.017909      1.755472      0.623181
    9   H      9    1.4430  1.100     -4.178920      1.608066     -0.404323
 ------------------------------------------------------------------------------
 One-electron integrals computed using PRISM.
 PrsmSu:  requested number of processors reduced to:  30 ShMem   1 Linda.
   1 Symmetry operations used in ECPInt.
 ECPInt:  NShTT=    1326 NPrTT=    5049 LenC2=    1323 LenP2D=    4227.
 LDataN:  DoStor=T MaxTD1= 6 Len=  172
 Number of processors reduced to  26 by ecpmxn.
 NBasis=   117 RedAO= T EigKep=  2.27D-03  NBF=   117
 NBsUse=   117 1.00D-06 EigRej= -1.00D+00 NBFU=   117
 Defaulting to unpruned grid for atomic number  56.
 ExpMin= 1.81D-02 ExpMax= 2.27D+03 ExpMxC= 3.41D+02 IAcc=3 IRadAn=         5 AccDes= 0.00D+00
 Harris functional with IExCor= 1009 and IRadAn=       5 diagonalized for initial guess.
 HarFok:  IExCor= 1009 AccDes= 0.00D+00 IRadAn=         5 IDoV= 1 UseB2=F ITyADJ=14
 ICtDFT=  3500011 ScaDFX=  1.000000  1.000000  1.000000  1.000000
 Defaulting to unpruned grid for atomic number  56.
 FoFCou: FMM=F IPFlag=           0 FMFlag=      100000 FMFlg1=           0
         NFxFlg=           0 DoJE=T BraDBF=F KetDBF=T FulRan=T
         wScrn=  0.000000 ICntrl=       500 IOpCl=  0 I1Cent=   200000004 NGrid=           0
         NMat0=    1 NMatS0=      1 NMatT0=    0 NMatD0=    1 NMtDS0=    0 NMtDT0=    0
 Petite list used in FoFCou.
 Keep R1 ints in memory in canonical form, NReq=70429934.
 Requested convergence on RMS density matrix=1.00D-08 within 128 cycles.
 Requested convergence on MAX density matrix=1.00D-06.
 Requested convergence on             energy=1.00D-06.
 No special actions if energy rises.
 Defaulting to unpruned grid for atomic number  56.
 Defaulting to unpruned grid for atomic number  56.
 Defaulting to unpruned grid for atomic number  56.
 Defaulting to unpruned grid for atomic number  56.
 Defaulting to unpruned grid for atomic number  56.
 Defaulting to unpruned grid for atomic number  56.
 Defaulting to unpruned grid for atomic number  56.
 Defaulting to unpruned grid for atomic number  56.
 Defaulting to unpruned grid for atomic number  56.
 Defaulting to unpruned grid for atomic number  56.
 Defaulting to unpruned grid for atomic number  56.
 Defaulting to unpruned grid for atomic number  56.
 Defaulting to unpruned grid for atomic number  56.
 Defaulting to unpruned grid for atomic number  56.
 Defaulting to unpruned grid for atomic number  56.
 Defaulting to unpruned grid for atomic number  56.
 Defaulting to unpruned grid for atomic number  56.
 Defaulting to unpruned grid for atomic number  56.
 Defaulting to unpruned grid for atomic number  56.
 Defaulting to unpruned grid for atomic number  56.
 Defaulting to unpruned grid for atomic number  56.
 Defaulting to unpruned grid for atomic number  56.
 Defaulting to unpruned grid for atomic number  56.
 Defaulting to unpruned grid for atomic number  56.
 Defaulting to unpruned grid for atomic number  56.
 Defaulting to unpruned grid for atomic number  56.
 Defaulting to unpruned grid for atomic number  56.
 Defaulting to unpruned grid for atomic number  56.
 Defaulting to unpruned grid for atomic number  56.
 Defaulting to unpruned grid for atomic number  56.
 Defaulting to unpruned grid for atomic number  56.
 Defaulting to unpruned grid for atomic number  56.
 Defaulting to unpruned grid for atomic number  56.
 Defaulting to unpruned grid for atomic number  56.
 Defaulting to unpruned grid for atomic number  56.
 Defaulting to unpruned grid for atomic number  56.
 Defaulting to unpruned grid for atomic number  56.
 Defaulting to unpruned grid for atomic number  56.
 Defaulting to unpruned grid for atomic number  56.
 Defaulting to unpruned grid for atomic number  56.
 Defaulting to unpruned grid for atomic number  56.
 Defaulting to unpruned grid for atomic number  56.
 Defaulting to unpruned grid for atomic number  56.
 Defaulting to unpruned grid for atomic number  56.
 Defaulting to unpruned grid for atomic number  56.
 Defaulting to unpruned grid for atomic number  56.
 Defaulting to unpruned grid for atomic number  56.
 Defaulting to unpruned grid for atomic number  56.
 Defaulting to unpruned grid for atomic number  56.
 CoulSu:  requested number of processors reduced to:  37 ShMem   1 Linda.
 Inv3:  Mode=1 IEnd=     3810387.
 Iteration    1 A*A^-1 deviation from unit magnitude is 2.78D-15 for    194.
 Iteration    1 A*A^-1 deviation from orthogonality  is 2.39D-15 for    749    462.
 Iteration    1 A^-1*A deviation from unit magnitude is 3.00D-15 for    194.
 Iteration    1 A^-1*A deviation from orthogonality  is 1.40D-15 for    775    474.
 CoulSu:  requested number of processors reduced to:  37 ShMem   1 Linda.
 CoulSu:  requested number of processors reduced to:  37 ShMem   1 Linda.
 CoulSu:  requested number of processors reduced to:  38 ShMem   1 Linda.
 CoulSu:  requested number of processors reduced to:  36 ShMem   1 Linda.
 Error on total polarization charges =  0.25184
 SCF Done:  E(RM062X) =  -358.416087724     A.U. after   26 cycles
            NFock= 26  Conv=0.11D-08     -V/T= 2.0606

 **********************************************************************

            Population analysis using the SCF density.

 **********************************************************************

 Orbital symmetries:
       Occupied  (A) (A) (A) (A) (A) (A) (A) (A) (A) (A) (A) (A)
                 (A) (A) (A) (A) (A) (A) (A) (A) (A) (A) (A) (A)
                 (A) (A) (A)
       Virtual   (A) (A) (A) (A) (A) (A) (A) (A) (A) (A) (A) (A)
                 (A) (A) (A) (A) (A) (A) (A) (A) (A) (A) (A) (A)
                 (A) (A) (A) (A) (A) (A) (A) (A) (A) (A) (A) (A)
                 (A) (A) (A) (A) (A) (A) (A) (A) (A) (A) (A) (A)
                 (A) (A) (A) (A) (A) (A) (A) (A) (A) (A) (A) (A)
                 (A) (A) (A) (A) (A) (A) (A) (A) (A) (A) (A) (A)
                 (A) (A) (A) (A) (A) (A) (A) (A) (A) (A) (A) (A)
                 (A) (A) (A) (A) (A) (A)
 The electronic state is 1-A.
 Alpha  occ. eigenvalues --  -19.61065 -14.87721 -14.84691 -14.81699 -14.76511
 Alpha  occ. eigenvalues --  -10.67467  -1.34099  -1.27357  -1.17936  -1.01093
 Alpha  occ. eigenvalues --   -0.96258  -0.77441  -0.74445  -0.72431  -0.72136
 Alpha  occ. eigenvalues --   -0.72105  -0.68974  -0.60120  -0.56166  -0.53388
 Alpha  occ. eigenvalues --   -0.48487  -0.40740  -0.38246  -0.36704  -0.33620
 Alpha  occ. eigenvalues --   -0.29291  -0.07207
 Alpha virt. eigenvalues --   -0.01292   0.03312   0.04160   0.05086   0.05639
 Alpha virt. eigenvalues --    0.05748   0.06050   0.06075   0.07219   0.10059
 Alpha virt. eigenvalues --    0.10572   0.12441   0.13788   0.15478   0.15706
 Alpha virt. eigenvalues --    0.15770   0.17316   0.18075   0.21617   0.25291
 Alpha virt. eigenvalues --    0.29940   0.35605   0.42098   0.46705   0.52061
 Alpha virt. eigenvalues --    0.56122   0.56494   0.57860   0.67348   0.72299
 Alpha virt. eigenvalues --    0.73859   0.74708   0.79040   0.82083   0.84501
 Alpha virt. eigenvalues --    0.85775   0.86616   0.92094   0.93409   0.94637
 Alpha virt. eigenvalues --    0.96423   1.00274   1.07991   1.10596   1.12065
 Alpha virt. eigenvalues --    1.14727   1.18843   1.20365   1.25095   1.32890
 Alpha virt. eigenvalues --    1.35853   1.38137   1.52408   1.56911   1.59921
 Alpha virt. eigenvalues --    1.65171   1.70841   1.83076   1.85495   1.89591
 Alpha virt. eigenvalues --    1.93109   1.99095   1.99338   2.03118   2.15068
 Alpha virt. eigenvalues --    2.17073   2.18609   2.31493   2.32974   2.43344
 Alpha virt. eigenvalues --    2.51243   2.55231   2.63104   2.68464   2.73837
 Alpha virt. eigenvalues --    2.75801   2.81411   2.85806   2.88235   2.94165
 Alpha virt. eigenvalues --    3.03043   3.07515   3.16487   3.30728   3.33793
 Alpha virt. eigenvalues --    3.48851   3.58505   3.76933   3.82757  83.08228
          Condensed to atoms (all electrons):
               1          2          3          4          5          6
     1  Ba   9.817514   0.035288  -0.040206  -0.072223   0.002498   0.008476
     2  O    0.035288   7.762328   0.673939  -0.080757   0.002054   0.001999
     3  C   -0.040206   0.673939   4.564888   0.248723  -0.050106  -0.079377
     4  N   -0.072223  -0.080757   0.248723   6.888511   0.137221  -0.044950
     5  N    0.002498   0.002054  -0.050106   0.137221   6.367617   0.106719
     6  N    0.008476   0.001999  -0.079377  -0.044950   0.106719   6.953487
     7  N   -0.043353  -0.070804   0.328822  -0.133002  -0.067602   0.266275
     8  H    0.060706   0.001076  -0.008555   0.265599  -0.025576   0.009620
     9  H    0.001332  -0.000033   0.004106  -0.039538   0.417029  -0.021402
               7          8          9
     1  Ba  -0.043353   0.060706   0.001332
     2  O   -0.070804   0.001076  -0.000033
     3  C    0.328822  -0.008555   0.004106
     4  N   -0.133002   0.265599  -0.039538
     5  N   -0.067602  -0.025576   0.417029
     6  N    0.266275   0.009620  -0.021402
     7  N    7.086413   0.006843   0.001642
     8  H    0.006843   0.504234  -0.004126
     9  H    0.001642  -0.004126   0.458296
 Mulliken charges:
               1
     1  Ba   0.229969
     2  O   -0.325090
     3  C    0.357766
     4  N   -0.169584
     5  N    0.110146
     6  N   -0.200846
     7  N   -0.375234
     8  H    0.190179
     9  H    0.182695
 Sum of Mulliken charges =  -0.00000
 Mulliken charges with hydrogens summed into heavy atoms:
               1
     1  Ba   0.229969
     2  O   -0.325090
     3  C    0.357766
     4  N    0.020595
     5  N    0.292841
     6  N   -0.200846
     7  N   -0.375234
 Electronic spatial extent (au):  <R**2>=           1617.4729
 Charge=             -0.0000 electrons
 Dipole moment (field-independent basis, Debye):
    X=              8.0998    Y=              5.1147    Z=              0.6831  Tot=              9.6038
 Quadrupole moment (field-independent basis, Debye-Ang):
   XX=            -55.2022   YY=            -77.2006   ZZ=            -77.5810
   XY=            -24.3677   XZ=             -5.0531   YZ=             -0.6775
 Traceless Quadrupole moment (field-independent basis, Debye-Ang):
   XX=             14.7924   YY=             -7.2061   ZZ=             -7.5864
   XY=            -24.3677   XZ=             -5.0531   YZ=             -0.6775
 Octapole moment (field-independent basis, Debye-Ang**2):
  XXX=            105.4127  YYY=              2.6912  ZZZ=              7.4689  XYY=              3.9723
  XXY=             88.1712  XXZ=              4.7574  XZZ=             22.7670  YZZ=             -3.7517
  YYZ=              3.4953  XYZ=              5.8386
 Hexadecapole moment (field-independent basis, Debye-Ang**3):
 XXXX=          -2483.8223 YYYY=           -485.3120 ZZZZ=           -359.2517 XXXY=           -317.9717
 XXXZ=            -69.1271 YYYX=            -96.9848 YYYZ=             -2.4694 ZZZX=            -16.5142
 ZZZY=             -2.8200 XXYY=           -459.8873 XXZZ=           -495.1255 YYZZ=           -141.2295
 XXYZ=            -38.0304 YYXZ=             -3.3419 ZZXY=            -15.2197
 N-N= 2.865804940839D+02 E-N=-1.401469475879D+03  KE= 3.379497153726D+02
 PrsmSu:  requested number of processors reduced to:  22 ShMem   1 Linda.
   1 Symmetry operations used in ECPInt.
 ECPInt:  NShTT=    1326 NPrTT=    5049 LenC2=    1323 LenP2D=    4227.
 LDataN:  DoStor=T MaxTD1= 7 Len=  274
 Number of processors reduced to  24 by ecpmxn.
 D1PCM: PCM CHGder 1st derivatives, ID1Alg=3 FixD1E=F DoIter=F DoCFld=F I1PDM=0.
 CoulSu:  requested number of processors reduced to:  48 ShMem   1 Linda.
 CoulSu:  requested number of processors reduced to:  48 ShMem   1 Linda.
 CoulSu:  requested number of processors reduced to:  29 ShMem   1 Linda.
 CoulSu:  requested number of processors reduced to:  30 ShMem   1 Linda.
 Calling FoFJK, ICntrl=      2127 FMM=F ISym2X=0 I1Cent= 0 IOpClX= 0 NMat=1 NMatS=1 NMatT=0.
 Defaulting to unpruned grid for atomic number  56.
 Defaulting to unpruned grid for atomic number  56.
 Defaulting to unpruned grid for atomic number  56.
 Defaulting to unpruned grid for atomic number  56.
 Defaulting to unpruned grid for atomic number  56.
 Defaulting to unpruned grid for atomic number  56.
 Defaulting to unpruned grid for atomic number  56.
 Defaulting to unpruned grid for atomic number  56.
 Defaulting to unpruned grid for atomic number  56.
 Defaulting to unpruned grid for atomic number  56.
 Defaulting to unpruned grid for atomic number  56.
 Defaulting to unpruned grid for atomic number  56.
 Defaulting to unpruned grid for atomic number  56.
 Defaulting to unpruned grid for atomic number  56.
 Defaulting to unpruned grid for atomic number  56.
 Defaulting to unpruned grid for atomic number  56.
 Defaulting to unpruned grid for atomic number  56.
 Defaulting to unpruned grid for atomic number  56.
 Defaulting to unpruned grid for atomic number  56.
 Defaulting to unpruned grid for atomic number  56.
 Defaulting to unpruned grid for atomic number  56.
 Defaulting to unpruned grid for atomic number  56.
 Defaulting to unpruned grid for atomic number  56.
 Defaulting to unpruned grid for atomic number  56.
 Defaulting to unpruned grid for atomic number  56.
 Defaulting to unpruned grid for atomic number  56.
 Defaulting to unpruned grid for atomic number  56.
 Defaulting to unpruned grid for atomic number  56.
 Defaulting to unpruned grid for atomic number  56.
 Defaulting to unpruned grid for atomic number  56.
 Defaulting to unpruned grid for atomic number  56.
 Defaulting to unpruned grid for atomic number  56.
 Defaulting to unpruned grid for atomic number  56.
 Defaulting to unpruned grid for atomic number  56.
 Defaulting to unpruned grid for atomic number  56.
 Defaulting to unpruned grid for atomic number  56.
 Defaulting to unpruned grid for atomic number  56.
 Defaulting to unpruned grid for atomic number  56.
 Defaulting to unpruned grid for atomic number  56.
 Defaulting to unpruned grid for atomic number  56.
 Defaulting to unpruned grid for atomic number  56.
 Defaulting to unpruned grid for atomic number  56.
 Defaulting to unpruned grid for atomic number  56.
 Defaulting to unpruned grid for atomic number  56.
 Defaulting to unpruned grid for atomic number  56.
 Defaulting to unpruned grid for atomic number  56.
 Defaulting to unpruned grid for atomic number  56.
 Defaulting to unpruned grid for atomic number  56.
 Defaulting to unpruned grid for atomic number  56.
 ***** Axes restored to original set *****
 -------------------------------------------------------------------
 Center     Atomic                   Forces (Hartrees/Bohr)
 Number     Number              X              Y              Z
 -------------------------------------------------------------------
      1       56          -0.004393360    0.003407788   -0.003475861
      2        8           0.111789995   -0.028303539    0.029330452
      3        6          -0.168142516    0.064460703   -0.011165898
      4        7           0.210869210   -0.122580368   -0.147319411
      5        7          -0.085414723    0.085597419    0.146105535
      6        7           0.037459673    0.000665684    0.027446191
      7        7          -0.058074334   -0.008053142   -0.036845737
      8        1          -0.015017217    0.021904428    0.044821800
      9        1          -0.029076726   -0.017098974   -0.048897071
 -------------------------------------------------------------------
 Cartesian Forces:  Max     0.210869210 RMS     0.080992101

 GradGradGradGradGradGradGradGradGradGradGradGradGradGradGradGradGradGrad
 Berny optimization.
 FormGI is forming the generalized inverse of G from B-inverse, IUseBI=4.
 Internal  Forces:  Max     0.123040037 RMS     0.041433301
 Search for a local minimum.
 Step number   1 out of a maximum of   10
 All quantities printed in internal units (Hartrees-Bohrs-Radians)
 Mixed Optimization -- RFO/linear search
 Second derivative matrix not updated -- first step.
 ITU=  0
     Eigenvalues ---    0.01518   0.02529   0.02800   0.03122   0.03293
     Eigenvalues ---    0.03728   0.04795   0.15574   0.15849   0.22487
     Eigenvalues ---    0.24625   0.24799   0.25000   0.32043   0.36552
     Eigenvalues ---    0.43594   0.46792   0.50175   0.55440   0.89155
     Eigenvalues ---    1.24316
 RFO step:  Lambda=-1.11041895D-01 EMin= 1.51752550D-02
 Linear search not attempted -- first point.
 Maximum step size (   0.300) exceeded in Quadratic search.
    -- Step size scaled by   0.600
 Iteration  1 RMS(Cart)=  0.04400850 RMS(Int)=  0.00222058
 Iteration  2 RMS(Cart)=  0.00280223 RMS(Int)=  0.00100807
 Iteration  3 RMS(Cart)=  0.00000200 RMS(Int)=  0.00100806
 Iteration  4 RMS(Cart)=  0.00000000 RMS(Int)=  0.00100806
 Variable       Old X    -DE/DX   Delta X   Delta X   Delta X     New X
                                 (Linear)    (Quad)   (Total)
    R1        5.31531  -0.00585   0.00000  -0.02367  -0.02367   5.29164
    R2        2.20231   0.11312   0.00000   0.05015   0.05015   2.25246
    R3        2.57876  -0.00296   0.00000   0.00487   0.00634   2.58510
    R4        2.63207   0.00986   0.00000   0.00521   0.00515   2.63722
    R5        2.30781   0.12304   0.00000   0.07519   0.07619   2.38400
    R6        2.10765  -0.05095   0.00000  -0.07089  -0.07089   2.03675
    R7        2.61965  -0.01695   0.00000  -0.01838  -0.01919   2.60045
    R8        1.81443   0.05801   0.00000   0.05234   0.05234   1.86677
    R9        2.73999  -0.07099   0.00000  -0.09850  -0.09998   2.64001
    A1        2.37691  -0.01152   0.00000  -0.01915  -0.01915   2.35776
    A2        2.27515  -0.02866   0.00000  -0.05084  -0.05167   2.22348
    A3        2.30923  -0.00662   0.00000  -0.01516  -0.01612   2.29310
    A4        1.69401   0.03572   0.00000   0.06822   0.06979   1.76381
    A5        2.18997  -0.10344   0.00000  -0.16034  -0.15813   2.03184
    A6        2.09599   0.04002   0.00000   0.05496   0.05402   2.15001
    A7        1.98506   0.06281   0.00000   0.10488   0.10376   2.08882
    A8        1.77103   0.04283   0.00000   0.09619   0.09661   1.86764
    A9        2.38504  -0.03207   0.00000  -0.07305  -0.07337   2.31168
   A10        2.10776  -0.01085   0.00000  -0.02428  -0.02433   2.08343
   A11        1.87005  -0.00027   0.00000  -0.01880  -0.02162   1.84842
   A12        1.88849   0.02552   0.00000   0.01700   0.01561   1.90409
    D1       -1.30723   0.00780   0.00000   0.03094   0.03075  -1.27648
    D2        1.96443  -0.00053   0.00000  -0.00347  -0.00328   1.96115
    D3        3.11565   0.00222   0.00000   0.00088   0.00010   3.11574
    D4        0.15183  -0.00034   0.00000  -0.00698  -0.00747   0.14436
    D5       -0.12274   0.00739   0.00000   0.02427   0.02352  -0.09922
    D6       -3.08656   0.00483   0.00000   0.01641   0.01595  -3.07060
    D7       -3.11030   0.00675   0.00000   0.01542   0.01453  -3.09578
    D8        0.13104   0.00326   0.00000  -0.00575  -0.00753   0.12351
    D9        0.04874  -0.00325   0.00000  -0.01618  -0.01594   0.03280
   D10       -2.87072  -0.00482   0.00000  -0.01446  -0.01358  -2.88430
   D11        3.02240  -0.00159   0.00000  -0.01117  -0.01191   3.01049
   D12        0.10294  -0.00316   0.00000  -0.00946  -0.00955   0.09339
   D13        0.05004  -0.00186   0.00000  -0.00073   0.00035   0.05039
   D14        3.01472  -0.00553   0.00000  -0.01334  -0.01236   3.00236
   D15       -0.12412   0.00243   0.00000   0.01125   0.01147  -0.11265
         Item               Value     Threshold  Converged?
 Maximum Force            0.123040     0.000450     NO 
 RMS     Force            0.041433     0.000300     NO 
 Maximum Displacement     0.106725     0.001800     NO 
 RMS     Displacement     0.044148     0.001200     NO 
 Predicted change in Energy=-5.168461D-02
 GradGradGradGradGradGradGradGradGradGradGradGradGradGradGradGradGradGrad

                          Input orientation:                          
 ---------------------------------------------------------------------
 Center     Atomic      Atomic             Coordinates (Angstroms)
 Number     Number       Type             X           Y           Z
 ---------------------------------------------------------------------
      1         56           0       14.709710    0.783171    2.161279
      2          8           0       13.214055    3.095962    1.656090
      3          6           0       12.092544    3.319303    1.319811
      4          7           0       11.545274    3.137327    0.079353
      5          7           0       10.320876    3.416696   -0.040387
      6          7           0        9.893923    3.886439    1.180557
      7          7           0       11.025846    3.909539    1.999042
      8          1           0       12.059551    2.636632   -0.724687
      9          1           0        9.654541    3.207691   -0.739077
 ---------------------------------------------------------------------
                    Distance matrix (angstroms):
                    1          2          3          4          5
     1  Ba   0.000000
     2  O    2.800214   0.000000
     3  C    3.740266   1.191953   0.000000
     4  N    4.459834   2.296223   1.367975   0.000000
     5  N    5.571772   3.369183   2.235718   1.261560   0.000000
     6  N    5.812391   3.445906   2.274856   2.121503   1.376100
     7  N    4.834392   2.359615   1.395557   2.133382   2.213402
     8  H    4.334450   2.685509   2.155713   1.077803   2.024786
     9  H    6.312297   4.291789   3.193014   2.061468   0.987853
                    6          7          8          9
     6  N    0.000000
     7  N    1.397033   0.000000
     8  H    3.143552   3.179235   0.000000
     9  H    2.050122   3.141714   2.471920   0.000000
 Stoichiometry    CH2BaN4O
 Framework group  C1[X(CH2BaN4O)]
 Deg. of freedom    21
 Full point group                 C1      NOp   1
 Largest Abelian subgroup         C1      NOp   1
 Largest concise Abelian subgroup C1      NOp   1
                         Standard orientation:                         
 ---------------------------------------------------------------------
 Center     Atomic      Atomic             Coordinates (Angstroms)
 Number     Number       Type             X           Y           Z
 ---------------------------------------------------------------------
      1         56           0        1.952105    0.044588   -0.084993
      2          8           0       -0.646172   -0.546158    0.775924
      3          6           0       -1.742366   -0.335000    0.358165
      4          7           0       -2.411602    0.858042    0.346834
      5          7           0       -3.560059    0.852399   -0.175229
      6          7           0       -3.820198   -0.442464   -0.561636
      7          7           0       -2.720238   -1.195239   -0.143165
      8          1           0       -1.951058    1.795372    0.613237
      9          1           0       -4.158557    1.577798   -0.477634
 ---------------------------------------------------------------------
 Rotational constants (GHZ):           6.7601762           0.4348494           0.4219016
 Standard basis: def2SVP (5D, 7F)
 There are   125 symmetry adapted cartesian basis functions of A   symmetry.
 There are   117 symmetry adapted basis functions of A   symmetry.
   117 basis functions,   218 primitive gaussians,   125 cartesian basis functions
    27 alpha electrons       27 beta electrons
       nuclear repulsion energy       286.1440835342 Hartrees.
 NAtoms=    9 NActive=    9 NUniq=    9 SFac= 1.00D+00 NAtFMM=   60 NAOKFM=F Big=F
 Integral buffers will be    131072 words long.
 Raffenetti 2 integral format.
 Two-electron integral symmetry is turned on.
 ------------------------------------------------------------------------------
 Polarizable Continuum Model (PCM)
 =================================
 Model                : PCM.
 Atomic radii         : UFF (Universal Force Field).
 Polarization charges : Total charges.
 Charge compensation  : None.
 Solution method      : On-the-fly selection.
 Cavity type          : Scaled VdW (van der Waals Surface) (Alpha=1.100).
 Cavity algorithm     : GePol (No added spheres)
                        Default sphere list used, NSphG=    9.
                        Lebedev-Laikov grids with approx.  5.0 points / Ang**2.
                        Smoothing algorithm: York/Karplus (Gamma=1.0000).
                        Polarization charges: spherical gaussians, with
                                              point-specific exponents (IZeta= 3).
                        Self-potential: point-specific (ISelfS= 7).
                        Self-field    : sphere-specific E.n sum rule (ISelfD= 2).
 1st derivatives      : Analytical E(r).r(x)/FMM algorithm (CHGder, D1EAlg=3).
                        Cavity 1st derivative terms included.
 Solvent              : Water, Eps=  78.355300 Eps(inf)=   1.777849
 ------------------------------------------------------------------------------
 Spheres list:
 ISph  on   Nord     Re0    Alpha      Xe            Ye            Ze
    1  Ba      1    1.8515  1.100      1.952105      0.044588     -0.084993
    2   O      2    1.7500  1.100     -0.646172     -0.546158      0.775924
    3   C      3    1.9255  1.100     -1.742366     -0.335000      0.358165
    4   N      4    1.8300  1.100     -2.411602      0.858042      0.346834
    5   N      5    1.8300  1.100     -3.560059      0.852399     -0.175229
    6   N      6    1.8300  1.100     -3.820198     -0.442464     -0.561636
    7   N      7    1.8300  1.100     -2.720238     -1.195239     -0.143165
    8   H      8    1.4430  1.100     -1.951058      1.795372      0.613237
    9   H      9    1.4430  1.100     -4.158557      1.577798     -0.477634
 ------------------------------------------------------------------------------
 One-electron integrals computed using PRISM.
 PrsmSu:  requested number of processors reduced to:  30 ShMem   1 Linda.
   1 Symmetry operations used in ECPInt.
 ECPInt:  NShTT=    1326 NPrTT=    5049 LenC2=    1323 LenP2D=    4223.
 LDataN:  DoStor=T MaxTD1= 6 Len=  172
 Number of processors reduced to  26 by ecpmxn.
 NBasis=   117 RedAO= T EigKep=  2.58D-03  NBF=   117
 NBsUse=   117 1.00D-06 EigRej= -1.00D+00 NBFU=   117
 Defaulting to unpruned grid for atomic number  56.
 Initial guess from the checkpoint file:  "/home/zz1/proj/gauss/new/chk/Ba-JEBHIK-5/61.chk"
 B after Tr=    -0.000000   -0.000000   -0.000000
         Rot=    0.999928    0.011912   -0.000235    0.001260 Ang=   1.37 deg.
 ExpMin= 1.81D-02 ExpMax= 2.27D+03 ExpMxC= 3.41D+02 IAcc=3 IRadAn=         5 AccDes= 0.00D+00
 Harris functional with IExCor= 1009 and IRadAn=       5 diagonalized for initial guess.
 HarFok:  IExCor= 1009 AccDes= 0.00D+00 IRadAn=         5 IDoV= 1 UseB2=F ITyADJ=14
 ICtDFT=  3500011 ScaDFX=  1.000000  1.000000  1.000000  1.000000
 Defaulting to unpruned grid for atomic number  56.
 FoFCou: FMM=F IPFlag=           0 FMFlag=      100000 FMFlg1=           0
         NFxFlg=           0 DoJE=T BraDBF=F KetDBF=T FulRan=T
         wScrn=  0.000000 ICntrl=       500 IOpCl=  0 I1Cent=   200000004 NGrid=           0
         NMat0=    1 NMatS0=      1 NMatT0=    0 NMatD0=    1 NMtDS0=    0 NMtDT0=    0
 Petite list used in FoFCou.
 Keep R1 ints in memory in canonical form, NReq=70429934.
 Requested convergence on RMS density matrix=1.00D-08 within 128 cycles.
 Requested convergence on MAX density matrix=1.00D-06.
 Requested convergence on             energy=1.00D-06.
 No special actions if energy rises.
 Defaulting to unpruned grid for atomic number  56.
 Defaulting to unpruned grid for atomic number  56.
 Defaulting to unpruned grid for atomic number  56.
 Defaulting to unpruned grid for atomic number  56.
 Defaulting to unpruned grid for atomic number  56.
 Defaulting to unpruned grid for atomic number  56.
 Defaulting to unpruned grid for atomic number  56.
 Defaulting to unpruned grid for atomic number  56.
 Defaulting to unpruned grid for atomic number  56.
 Defaulting to unpruned grid for atomic number  56.
 Defaulting to unpruned grid for atomic number  56.
 Defaulting to unpruned grid for atomic number  56.
 Defaulting to unpruned grid for atomic number  56.
 Defaulting to unpruned grid for atomic number  56.
 Defaulting to unpruned grid for atomic number  56.
 Defaulting to unpruned grid for atomic number  56.
 Defaulting to unpruned grid for atomic number  56.
 Defaulting to unpruned grid for atomic number  56.
 Defaulting to unpruned grid for atomic number  56.
 Defaulting to unpruned grid for atomic number  56.
 Defaulting to unpruned grid for atomic number  56.
 Defaulting to unpruned grid for atomic number  56.
 Defaulting to unpruned grid for atomic number  56.
 Defaulting to unpruned grid for atomic number  56.
 Defaulting to unpruned grid for atomic number  56.
 Defaulting to unpruned grid for atomic number  56.
 Defaulting to unpruned grid for atomic number  56.
 Defaulting to unpruned grid for atomic number  56.
 Defaulting to unpruned grid for atomic number  56.
 Defaulting to unpruned grid for atomic number  56.
 Defaulting to unpruned grid for atomic number  56.
 Defaulting to unpruned grid for atomic number  56.
 Defaulting to unpruned grid for atomic number  56.
 Defaulting to unpruned grid for atomic number  56.
 Defaulting to unpruned grid for atomic number  56.
 Defaulting to unpruned grid for atomic number  56.
 Defaulting to unpruned grid for atomic number  56.
 Defaulting to unpruned grid for atomic number  56.
 Defaulting to unpruned grid for atomic number  56.
 Defaulting to unpruned grid for atomic number  56.
 Defaulting to unpruned grid for atomic number  56.
 Defaulting to unpruned grid for atomic number  56.
 Defaulting to unpruned grid for atomic number  56.
 Defaulting to unpruned grid for atomic number  56.
 Defaulting to unpruned grid for atomic number  56.
 Defaulting to unpruned grid for atomic number  56.
 Defaulting to unpruned grid for atomic number  56.
 Defaulting to unpruned grid for atomic number  56.
 Defaulting to unpruned grid for atomic number  56.
 CoulSu:  requested number of processors reduced to:  37 ShMem   1 Linda.
 Inv3:  Mode=1 IEnd=     3857868.
 Iteration    1 A*A^-1 deviation from unit magnitude is 3.33D-15 for    743.
 Iteration    1 A*A^-1 deviation from orthogonality  is 2.84D-15 for    553    420.
 Iteration    1 A^-1*A deviation from unit magnitude is 3.33D-15 for    743.
 Iteration    1 A^-1*A deviation from orthogonality  is 2.11D-15 for    592    362.
 CoulSu:  requested number of processors reduced to:  37 ShMem   1 Linda.
 CoulSu:  requested number of processors reduced to:  37 ShMem   1 Linda.
 CoulSu:  requested number of processors reduced to:  38 ShMem   1 Linda.
 CoulSu:  requested number of processors reduced to:  36 ShMem   1 Linda.
 Error on total polarization charges =  0.25671
 SCF Done:  E(RM062X) =  -358.468036390     A.U. after   19 cycles
            NFock= 19  Conv=0.50D-08     -V/T= 2.0614

 **********************************************************************

            Population analysis using the SCF density.

 **********************************************************************

 Orbital symmetries:
       Occupied  (A) (A) (A) (A) (A) (A) (A) (A) (A) (A) (A) (A)
                 (A) (A) (A) (A) (A) (A) (A) (A) (A) (A) (A) (A)
                 (A) (A) (A)
       Virtual   (A) (A) (A) (A) (A) (A) (A) (A) (A) (A) (A) (A)
                 (A) (A) (A) (A) (A) (A) (A) (A) (A) (A) (A) (A)
                 (A) (A) (A) (A) (A) (A) (A) (A) (A) (A) (A) (A)
                 (A) (A) (A) (A) (A) (A) (A) (A) (A) (A) (A) (A)
                 (A) (A) (A) (A) (A) (A) (A) (A) (A) (A) (A) (A)
                 (A) (A) (A) (A) (A) (A) (A) (A) (A) (A) (A) (A)
                 (A) (A) (A) (A) (A) (A) (A) (A) (A) (A) (A) (A)
                 (A) (A) (A) (A) (A) (A)
 The electronic state is 1-A.
 Alpha  occ. eigenvalues --  -19.60851 -14.87851 -14.85024 -14.83163 -14.77233
 Alpha  occ. eigenvalues --  -10.67731  -1.33945  -1.26290  -1.16186  -1.03229
 Alpha  occ. eigenvalues --   -0.96065  -0.77086  -0.73093  -0.72002  -0.71972
 Alpha  occ. eigenvalues --   -0.71743  -0.71053  -0.59592  -0.57073  -0.53752
 Alpha  occ. eigenvalues --   -0.47426  -0.42064  -0.39166  -0.38430  -0.34044
 Alpha  occ. eigenvalues --   -0.29525  -0.07240
 Alpha virt. eigenvalues --   -0.01294   0.03379   0.04176   0.05057   0.05669
 Alpha virt. eigenvalues --    0.05770   0.06067   0.06080   0.07330   0.09991
 Alpha virt. eigenvalues --    0.10725   0.11777   0.13595   0.15531   0.15744
 Alpha virt. eigenvalues --    0.15807   0.17500   0.18104   0.23578   0.26176
 Alpha virt. eigenvalues --    0.29576   0.35453   0.42090   0.47758   0.50996
 Alpha virt. eigenvalues --    0.54007   0.56158   0.57492   0.67766   0.71284
 Alpha virt. eigenvalues --    0.72404   0.74972   0.79499   0.81410   0.83792
 Alpha virt. eigenvalues --    0.84527   0.86475   0.91822   0.92909   0.94284
 Alpha virt. eigenvalues --    0.96137   0.99012   1.06150   1.10564   1.11849
 Alpha virt. eigenvalues --    1.13805   1.15959   1.20494   1.24713   1.33197
 Alpha virt. eigenvalues --    1.36449   1.37618   1.52427   1.55874   1.60066
 Alpha virt. eigenvalues --    1.63859   1.72115   1.80897   1.86910   1.89698
 Alpha virt. eigenvalues --    1.92749   1.98773   1.99622   2.01328   2.14532
 Alpha virt. eigenvalues --    2.15307   2.19718   2.32080   2.34383   2.43930
 Alpha virt. eigenvalues --    2.48140   2.54787   2.57277   2.72049   2.74255
 Alpha virt. eigenvalues --    2.75772   2.82545   2.85660   2.88039   2.93559
 Alpha virt. eigenvalues --    2.97921   3.11221   3.14498   3.27435   3.32301
 Alpha virt. eigenvalues --    3.36325   3.60368   3.68667   3.80435  83.08434
          Condensed to atoms (all electrons):
               1          2          3          4          5          6
     1  Ba   9.869278   0.034949  -0.046516  -0.069062   0.003636   0.008844
     2  O    0.034949   7.819695   0.655845  -0.086503   0.002567   0.002253
     3  C   -0.046516   0.655845   4.565864   0.254345  -0.072905  -0.062569
     4  N   -0.069062  -0.086503   0.254345   6.805730   0.154943  -0.044019
     5  N    0.003636   0.002567  -0.072905   0.154943   6.397044   0.138645
     6  N    0.008844   0.002253  -0.062569  -0.044019   0.138645   6.849141
     7  N   -0.040447  -0.069604   0.350228  -0.126068  -0.061291   0.255344
     8  H    0.059096   0.000913  -0.004864   0.287856  -0.021149   0.006627
     9  H   -0.000174  -0.000046   0.004384  -0.031975   0.398216  -0.020291
               7          8          9
     1  Ba  -0.040447   0.059096  -0.000174
     2  O   -0.069604   0.000913  -0.000046
     3  C    0.350228  -0.004864   0.004384
     4  N   -0.126068   0.287856  -0.031975
     5  N   -0.061291  -0.021149   0.398216
     6  N    0.255344   0.006627  -0.020291
     7  N    7.043858   0.004823   0.002658
     8  H    0.004823   0.470112  -0.003303
     9  H    0.002658  -0.003303   0.448504
 Mulliken charges:
               1
     1  Ba   0.180397
     2  O   -0.360069
     3  C    0.356187
     4  N   -0.145246
     5  N    0.060294
     6  N   -0.133976
     7  N   -0.359501
     8  H    0.199888
     9  H    0.202027
 Sum of Mulliken charges =  -0.00000
 Mulliken charges with hydrogens summed into heavy atoms:
               1
     1  Ba   0.180397
     2  O   -0.360069
     3  C    0.356187
     4  N    0.054642
     5  N    0.262321
     6  N   -0.133976
     7  N   -0.359501
 Electronic spatial extent (au):  <R**2>=           1599.1100
 Charge=             -0.0000 electrons
 Dipole moment (field-independent basis, Debye):
    X=              6.4322    Y=              4.9253    Z=              0.3931  Tot=              8.1109
 Quadrupole moment (field-independent basis, Debye-Ang):
   XX=            -54.1940   YY=            -77.3949   ZZ=            -77.7144
   XY=            -23.6312   XZ=             -3.7848   YZ=             -0.4421
 Traceless Quadrupole moment (field-independent basis, Debye-Ang):
   XX=             15.5738   YY=             -7.6271   ZZ=             -7.9466
   XY=            -23.6312   XZ=             -3.7848   YZ=             -0.4421
 Octapole moment (field-independent basis, Debye-Ang**2):
  XXX=             84.7192  YYY=              1.8282  ZZZ=              7.3695  XYY=              1.0863
  XXY=             81.2884  XXZ=              0.3629  XZZ=             19.9325  YZZ=             -3.9189
  YYZ=              3.6082  XYZ=              5.6600
 Hexadecapole moment (field-independent basis, Debye-Ang**3):
 XXXX=          -2427.2609 YYYY=           -487.2361 ZZZZ=           -361.9149 XXXY=           -296.6747
 XXXZ=            -49.6459 YYYX=            -96.8963 YYYZ=             -1.3583 ZZZX=            -13.3531
 ZZZY=             -2.4161 XXYY=           -459.8382 XXZZ=           -487.1598 YYZZ=           -141.8998
 XXYZ=            -39.0597 YYXZ=             -1.8058 ZZXY=            -16.0700
 N-N= 2.861440835342D+02 E-N=-1.400265339774D+03  KE= 3.377366983471D+02
 PrsmSu:  requested number of processors reduced to:  22 ShMem   1 Linda.
   1 Symmetry operations used in ECPInt.
 ECPInt:  NShTT=    1326 NPrTT=    5049 LenC2=    1323 LenP2D=    4223.
 LDataN:  DoStor=T MaxTD1= 7 Len=  274
 Number of processors reduced to  24 by ecpmxn.
 D1PCM: PCM CHGder 1st derivatives, ID1Alg=3 FixD1E=F DoIter=F DoCFld=F I1PDM=0.
 CoulSu:  requested number of processors reduced to:  48 ShMem   1 Linda.
 CoulSu:  requested number of processors reduced to:  48 ShMem   1 Linda.
 CoulSu:  requested number of processors reduced to:  29 ShMem   1 Linda.
 CoulSu:  requested number of processors reduced to:  30 ShMem   1 Linda.
 Calling FoFJK, ICntrl=      2127 FMM=F ISym2X=0 I1Cent= 0 IOpClX= 0 NMat=1 NMatS=1 NMatT=0.
 Defaulting to unpruned grid for atomic number  56.
 Defaulting to unpruned grid for atomic number  56.
 Defaulting to unpruned grid for atomic number  56.
 Defaulting to unpruned grid for atomic number  56.
 Defaulting to unpruned grid for atomic number  56.
 Defaulting to unpruned grid for atomic number  56.
 Defaulting to unpruned grid for atomic number  56.
 Defaulting to unpruned grid for atomic number  56.
 Defaulting to unpruned grid for atomic number  56.
 Defaulting to unpruned grid for atomic number  56.
 Defaulting to unpruned grid for atomic number  56.
 Defaulting to unpruned grid for atomic number  56.
 Defaulting to unpruned grid for atomic number  56.
 Defaulting to unpruned grid for atomic number  56.
 Defaulting to unpruned grid for atomic number  56.
 Defaulting to unpruned grid for atomic number  56.
 Defaulting to unpruned grid for atomic number  56.
 Defaulting to unpruned grid for atomic number  56.
 Defaulting to unpruned grid for atomic number  56.
 Defaulting to unpruned grid for atomic number  56.
 Defaulting to unpruned grid for atomic number  56.
 Defaulting to unpruned grid for atomic number  56.
 Defaulting to unpruned grid for atomic number  56.
 Defaulting to unpruned grid for atomic number  56.
 Defaulting to unpruned grid for atomic number  56.
 Defaulting to unpruned grid for atomic number  56.
 Defaulting to unpruned grid for atomic number  56.
 Defaulting to unpruned grid for atomic number  56.
 Defaulting to unpruned grid for atomic number  56.
 Defaulting to unpruned grid for atomic number  56.
 Defaulting to unpruned grid for atomic number  56.
 Defaulting to unpruned grid for atomic number  56.
 Defaulting to unpruned grid for atomic number  56.
 Defaulting to unpruned grid for atomic number  56.
 Defaulting to unpruned grid for atomic number  56.
 Defaulting to unpruned grid for atomic number  56.
 Defaulting to unpruned grid for atomic number  56.
 Defaulting to unpruned grid for atomic number  56.
 Defaulting to unpruned grid for atomic number  56.
 Defaulting to unpruned grid for atomic number  56.
 Defaulting to unpruned grid for atomic number  56.
 Defaulting to unpruned grid for atomic number  56.
 Defaulting to unpruned grid for atomic number  56.
 Defaulting to unpruned grid for atomic number  56.
 Defaulting to unpruned grid for atomic number  56.
 Defaulting to unpruned grid for atomic number  56.
 Defaulting to unpruned grid for atomic number  56.
 Defaulting to unpruned grid for atomic number  56.
 Defaulting to unpruned grid for atomic number  56.
 ***** Axes restored to original set *****
 -------------------------------------------------------------------
 Center     Atomic                   Forces (Hartrees/Bohr)
 Number     Number              X              Y              Z
 -------------------------------------------------------------------
      1       56          -0.003868127    0.003187151   -0.003395728
      2        8           0.062995462   -0.016154925    0.022673984
      3        6          -0.099667293    0.046261475   -0.006148881
      4        7           0.113292860   -0.072546082   -0.082557782
      5        7          -0.066647031    0.057304835    0.091331639
      6        7           0.058364321   -0.011207088    0.005799217
      7        7          -0.040139275   -0.011801954   -0.032948436
      8        1          -0.014603950    0.014742367    0.030301030
      9        1          -0.009726968   -0.009785780   -0.025055043
 -------------------------------------------------------------------
 Cartesian Forces:  Max     0.113292860 RMS     0.049606366

 GradGradGradGradGradGradGradGradGradGradGradGradGradGradGradGradGradGrad
 Berny optimization.
 Using GEDIIS/GDIIS optimizer.
 FormGI is forming the generalized inverse of G from B-inverse, IUseBI=4.
 Internal  Forces:  Max     0.067797191 RMS     0.024268999
 Search for a local minimum.
 Step number   2 out of a maximum of   10
 All quantities printed in internal units (Hartrees-Bohrs-Radians)
 Mixed Optimization -- RFO/linear search
 Update second derivatives using D2CorX and points    1    2
 DE= -5.19D-02 DEPred=-5.17D-02 R= 1.01D+00
 TightC=F SS=  1.41D+00  RLast= 3.05D-01 DXNew= 5.0454D-01 9.1487D-01
 Trust test= 1.01D+00 RLast= 3.05D-01 DXMaxT set to 5.05D-01
 ITU=  1  0
 Use linear search instead of GDIIS.
     Eigenvalues ---    0.01524   0.02494   0.02795   0.03063   0.03265
     Eigenvalues ---    0.03725   0.04787   0.15364   0.15851   0.22343
     Eigenvalues ---    0.24809   0.24949   0.27528   0.30822   0.34250
     Eigenvalues ---    0.43321   0.48415   0.50327   0.57797   0.86485
     Eigenvalues ---    1.20809
 RFO step:  Lambda=-2.48033888D-02 EMin= 1.52389344D-02
 Quartic linear search produced a step of  1.21036.
 Iteration  1 RMS(Cart)=  0.07952692 RMS(Int)=  0.01245945
 Iteration  2 RMS(Cart)=  0.01138738 RMS(Int)=  0.00413791
 Iteration  3 RMS(Cart)=  0.00004918 RMS(Int)=  0.00413752
 Iteration  4 RMS(Cart)=  0.00000036 RMS(Int)=  0.00413752
 Variable       Old X    -DE/DX   Delta X   Delta X   Delta X     New X
                                 (Linear)    (Quad)   (Total)
    R1        5.29164  -0.00533  -0.02865  -0.07521  -0.10386   5.18778
    R2        2.25246   0.06351   0.06070   0.02043   0.08113   2.33360
    R3        2.58510   0.00258   0.00768   0.01796   0.02867   2.61377
    R4        2.63722  -0.00962   0.00623  -0.06675  -0.06106   2.57616
    R5        2.38400   0.06780   0.09222   0.02804   0.12231   2.50632
    R6        2.03675  -0.03641  -0.08581  -0.07560  -0.16141   1.87535
    R7        2.60045  -0.03256  -0.02323  -0.10504  -0.12978   2.47067
    R8        1.86677   0.02636   0.06335  -0.00291   0.06044   1.92721
    R9        2.64001  -0.05848  -0.12101  -0.13672  -0.26107   2.37894
    A1        2.35776  -0.01060  -0.02318  -0.03972  -0.06290   2.29486
    A2        2.22348  -0.01283  -0.06254   0.01100  -0.05627   2.16721
    A3        2.29310  -0.00459  -0.01952  -0.00830  -0.03167   2.26143
    A4        1.76381   0.01784   0.08448   0.00539   0.08873   1.85254
    A5        2.03184  -0.05401  -0.19140  -0.01717  -0.20376   1.82809
    A6        2.15001   0.02269   0.06539   0.02744   0.09076   2.24077
    A7        2.08882   0.03121   0.12559  -0.00604   0.11657   2.20539
    A8        1.86764   0.01287   0.11693  -0.06058   0.05529   1.92293
    A9        2.31168  -0.01650  -0.08880  -0.02953  -0.11978   2.19189
   A10        2.08343   0.00315  -0.02945   0.07654   0.04629   2.12973
   A11        1.84842   0.01235  -0.02617   0.10208   0.06870   1.91712
   A12        1.90409   0.01146   0.01889  -0.01742  -0.00364   1.90045
    D1       -1.27648   0.00778   0.03722   0.12329   0.15742  -1.11906
    D2        1.96115  -0.00027  -0.00397  -0.01553  -0.01641   1.94474
    D3        3.11574   0.00076   0.00012   0.00769   0.00016   3.11590
    D4        0.14436  -0.00102  -0.00904  -0.02003  -0.03237   0.11199
    D5       -0.09922   0.00635   0.02847   0.11299   0.13593   0.03672
    D6       -3.07060   0.00457   0.01931   0.08527   0.10341  -2.96719
    D7       -3.09578   0.00391   0.01758   0.02288   0.03361  -3.06217
    D8        0.12351  -0.00156  -0.00911  -0.08988  -0.11108   0.01243
    D9        0.03280  -0.00397  -0.01929  -0.08920  -0.10570  -0.07290
   D10       -2.88430  -0.00283  -0.01644  -0.02491  -0.03802  -2.92232
   D11        3.01049  -0.00275  -0.01441  -0.05899  -0.07580   2.93470
   D12        0.09339  -0.00161  -0.01155   0.00530  -0.00811   0.08528
   D13        0.05039   0.00047   0.00042   0.02483   0.03454   0.08493
   D14        3.00236  -0.00373  -0.01496  -0.04266  -0.05577   2.94659
   D15       -0.11265   0.00162   0.01389   0.04128   0.05403  -0.05863
         Item               Value     Threshold  Converged?
 Maximum Force            0.067797     0.000450     NO 
 RMS     Force            0.024269     0.000300     NO 
 Maximum Displacement     0.237550     0.001800     NO 
 RMS     Displacement     0.084423     0.001200     NO 
 Predicted change in Energy=-3.790131D-02
 GradGradGradGradGradGradGradGradGradGradGradGradGradGradGradGradGradGrad

                          Input orientation:                          
 ---------------------------------------------------------------------
 Center     Atomic      Atomic             Coordinates (Angstroms)
 Number     Number       Type             X           Y           Z
 ---------------------------------------------------------------------
      1         56           0       14.584004    0.819828    2.079925
      2          8           0       13.206462    3.164119    1.701634
      3          6           0       12.060748    3.383447    1.296441
      4          7           0       11.616196    3.081015    0.022079
      5          7           0       10.340275    3.442965    0.014982
      6          7           0        9.980071    3.848875    1.204456
      7          7           0       10.978909    3.866922    1.970467
      8          1           0       12.091566    2.586846   -0.695318
      9          1           0        9.658091    3.198742   -0.702684
 ---------------------------------------------------------------------
                    Distance matrix (angstroms):
                    1          2          3          4          5
     1  Ba   0.000000
     2  O    2.745255   0.000000
     3  C    3.681414   1.234887   0.000000
     4  N    4.260936   2.314467   1.383145   0.000000
     5  N    5.399451   3.337301   2.146092   1.326286   0.000000
     6  N    5.580123   3.335517   2.134081   2.159752   1.307424
     7  N    4.721596   2.351212   1.363245   2.195450   2.100361
     8  H    4.127538   2.705848   2.145373   0.992390   2.074726
     9  H    6.137325   4.286360   3.131035   2.091248   1.019835
                    6          7          8          9
     6  N    0.000000
     7  N    1.258879   0.000000
     8  H    3.108097   3.159590   0.000000
     9  H    2.040472   3.055611   2.509237   0.000000
 Stoichiometry    CH2BaN4O
 Framework group  C1[X(CH2BaN4O)]
 Deg. of freedom    21
 Full point group                 C1      NOp   1
 Largest Abelian subgroup         C1      NOp   1
 Largest concise Abelian subgroup C1      NOp   1
                         Standard orientation:                         
 ---------------------------------------------------------------------
 Center     Atomic      Atomic             Coordinates (Angstroms)
 Number     Number       Type             X           Y           Z
 ---------------------------------------------------------------------
      1         56           0        1.885748    0.047205   -0.087647
      2          8           0       -0.617537   -0.649201    0.798359
      3          6           0       -1.743105   -0.353281    0.385475
      4          7           0       -2.256057    0.931223    0.380906
      5          7           0       -3.458631    0.812447   -0.165666
      6          7           0       -3.654748   -0.418266   -0.560939
      7          7           0       -2.682747   -1.138771   -0.213285
      8          1           0       -1.795078    1.779687    0.609915
      9          1           0       -4.042597    1.583696   -0.488503
 ---------------------------------------------------------------------
 Rotational constants (GHZ):           6.5500355           0.4648472           0.4503361
 Standard basis: def2SVP (5D, 7F)
 There are   125 symmetry adapted cartesian basis functions of A   symmetry.
 There are   117 symmetry adapted basis functions of A   symmetry.
   117 basis functions,   218 primitive gaussians,   125 cartesian basis functions
    27 alpha electrons       27 beta electrons
       nuclear repulsion energy       290.8236654533 Hartrees.
 NAtoms=    9 NActive=    9 NUniq=    9 SFac= 1.00D+00 NAtFMM=   60 NAOKFM=F Big=F
 Integral buffers will be    131072 words long.
 Raffenetti 2 integral format.
 Two-electron integral symmetry is turned on.
 ------------------------------------------------------------------------------
 Polarizable Continuum Model (PCM)
 =================================
 Model                : PCM.
 Atomic radii         : UFF (Universal Force Field).
 Polarization charges : Total charges.
 Charge compensation  : None.
 Solution method      : On-the-fly selection.
 Cavity type          : Scaled VdW (van der Waals Surface) (Alpha=1.100).
 Cavity algorithm     : GePol (No added spheres)
                        Default sphere list used, NSphG=    9.
                        Lebedev-Laikov grids with approx.  5.0 points / Ang**2.
                        Smoothing algorithm: York/Karplus (Gamma=1.0000).
                        Polarization charges: spherical gaussians, with
                                              point-specific exponents (IZeta= 3).
                        Self-potential: point-specific (ISelfS= 7).
                        Self-field    : sphere-specific E.n sum rule (ISelfD= 2).
 1st derivatives      : Analytical E(r).r(x)/FMM algorithm (CHGder, D1EAlg=3).
                        Cavity 1st derivative terms included.
 Solvent              : Water, Eps=  78.355300 Eps(inf)=   1.777849
 ------------------------------------------------------------------------------
 Spheres list:
 ISph  on   Nord     Re0    Alpha      Xe            Ye            Ze
    1  Ba      1    1.8515  1.100      1.885748      0.047205     -0.087647
    2   O      2    1.7500  1.100     -0.617537     -0.649201      0.798359
    3   C      3    1.9255  1.100     -1.743105     -0.353281      0.385475
    4   N      4    1.8300  1.100     -2.256057      0.931223      0.380906
    5   N      5    1.8300  1.100     -3.458631      0.812447     -0.165666
    6   N      6    1.8300  1.100     -3.654748     -0.418266     -0.560939
    7   N      7    1.8300  1.100     -2.682747     -1.138771     -0.213285
    8   H      8    1.4430  1.100     -1.795078      1.779687      0.609915
    9   H      9    1.4430  1.100     -4.042597      1.583696     -0.488503
 ------------------------------------------------------------------------------
 One-electron integrals computed using PRISM.
 PrsmSu:  requested number of processors reduced to:  30 ShMem   1 Linda.
   1 Symmetry operations used in ECPInt.
 ECPInt:  NShTT=    1326 NPrTT=    5049 LenC2=    1323 LenP2D=    4246.
 LDataN:  DoStor=T MaxTD1= 6 Len=  172
 Number of processors reduced to  26 by ecpmxn.
 NBasis=   117 RedAO= T EigKep=  2.45D-03  NBF=   117
 NBsUse=   117 1.00D-06 EigRej= -1.00D+00 NBFU=   117
 Defaulting to unpruned grid for atomic number  56.
 Initial guess from the checkpoint file:  "/home/zz1/proj/gauss/new/chk/Ba-JEBHIK-5/61.chk"
 B after Tr=     0.000000   -0.000000    0.000000
         Rot=    0.999874   -0.015764   -0.000220    0.001662 Ang=  -1.82 deg.
 ExpMin= 1.81D-02 ExpMax= 2.27D+03 ExpMxC= 3.41D+02 IAcc=3 IRadAn=         5 AccDes= 0.00D+00
 Harris functional with IExCor= 1009 and IRadAn=       5 diagonalized for initial guess.
 HarFok:  IExCor= 1009 AccDes= 0.00D+00 IRadAn=         5 IDoV= 1 UseB2=F ITyADJ=14
 ICtDFT=  3500011 ScaDFX=  1.000000  1.000000  1.000000  1.000000
 Defaulting to unpruned grid for atomic number  56.
 FoFCou: FMM=F IPFlag=           0 FMFlag=      100000 FMFlg1=           0
         NFxFlg=           0 DoJE=T BraDBF=F KetDBF=T FulRan=T
         wScrn=  0.000000 ICntrl=       500 IOpCl=  0 I1Cent=   200000004 NGrid=           0
         NMat0=    1 NMatS0=      1 NMatT0=    0 NMatD0=    1 NMtDS0=    0 NMtDT0=    0
 Petite list used in FoFCou.
 Keep R1 ints in memory in canonical form, NReq=70429934.
 Requested convergence on RMS density matrix=1.00D-08 within 128 cycles.
 Requested convergence on MAX density matrix=1.00D-06.
 Requested convergence on             energy=1.00D-06.
 No special actions if energy rises.
 Defaulting to unpruned grid for atomic number  56.
 Defaulting to unpruned grid for atomic number  56.
 Defaulting to unpruned grid for atomic number  56.
 Defaulting to unpruned grid for atomic number  56.
 Defaulting to unpruned grid for atomic number  56.
 Defaulting to unpruned grid for atomic number  56.
 Defaulting to unpruned grid for atomic number  56.
 Defaulting to unpruned grid for atomic number  56.
 Defaulting to unpruned grid for atomic number  56.
 Defaulting to unpruned grid for atomic number  56.
 Defaulting to unpruned grid for atomic number  56.
 Defaulting to unpruned grid for atomic number  56.
 Defaulting to unpruned grid for atomic number  56.
 Defaulting to unpruned grid for atomic number  56.
 Defaulting to unpruned grid for atomic number  56.
 Defaulting to unpruned grid for atomic number  56.
 Defaulting to unpruned grid for atomic number  56.
 Defaulting to unpruned grid for atomic number  56.
 Defaulting to unpruned grid for atomic number  56.
 Defaulting to unpruned grid for atomic number  56.
 Defaulting to unpruned grid for atomic number  56.
 Defaulting to unpruned grid for atomic number  56.
 Defaulting to unpruned grid for atomic number  56.
 Defaulting to unpruned grid for atomic number  56.
 Defaulting to unpruned grid for atomic number  56.
 Defaulting to unpruned grid for atomic number  56.
 Defaulting to unpruned grid for atomic number  56.
 Defaulting to unpruned grid for atomic number  56.
 Defaulting to unpruned grid for atomic number  56.
 Defaulting to unpruned grid for atomic number  56.
 Defaulting to unpruned grid for atomic number  56.
 Defaulting to unpruned grid for atomic number  56.
 Defaulting to unpruned grid for atomic number  56.
 Defaulting to unpruned grid for atomic number  56.
 Defaulting to unpruned grid for atomic number  56.
 Defaulting to unpruned grid for atomic number  56.
 Defaulting to unpruned grid for atomic number  56.
 Defaulting to unpruned grid for atomic number  56.
 Defaulting to unpruned grid for atomic number  56.
 Defaulting to unpruned grid for atomic number  56.
 Defaulting to unpruned grid for atomic number  56.
 Defaulting to unpruned grid for atomic number  56.
 Defaulting to unpruned grid for atomic number  56.
 Defaulting to unpruned grid for atomic number  56.
 Defaulting to unpruned grid for atomic number  56.
 Defaulting to unpruned grid for atomic number  56.
 Defaulting to unpruned grid for atomic number  56.
 Defaulting to unpruned grid for atomic number  56.
 Defaulting to unpruned grid for atomic number  56.
 CoulSu:  requested number of processors reduced to:  37 ShMem   1 Linda.
 Inv3:  Mode=1 IEnd=     3763200.
 Iteration    1 A*A^-1 deviation from unit magnitude is 2.78D-15 for    417.
 Iteration    1 A*A^-1 deviation from orthogonality  is 1.64D-15 for    550     58.
 Iteration    1 A^-1*A deviation from unit magnitude is 2.89D-15 for    723.
 Iteration    1 A^-1*A deviation from orthogonality  is 1.38D-14 for    514    488.
 CoulSu:  requested number of processors reduced to:  37 ShMem   1 Linda.
 CoulSu:  requested number of processors reduced to:  37 ShMem   1 Linda.
 CoulSu:  requested number of processors reduced to:  38 ShMem   1 Linda.
 CoulSu:  requested number of processors reduced to:  36 ShMem   1 Linda.
 Error on total polarization charges =  0.27128
 SCF Done:  E(RM062X) =  -358.497683109     A.U. after   20 cycles
            NFock= 20  Conv=0.77D-08     -V/T= 2.0608

 **********************************************************************

            Population analysis using the SCF density.

 **********************************************************************

 Orbital symmetries:
       Occupied  (A) (A) (A) (A) (A) (A) (A) (A) (A) (A) (A) (A)
                 (A) (A) (A) (A) (A) (A) (A) (A) (A) (A) (A) (A)
                 (A) (A) (A)
       Virtual   (A) (A) (A) (A) (A) (A) (A) (A) (A) (A) (A) (A)
                 (A) (A) (A) (A) (A) (A) (A) (A) (A) (A) (A) (A)
                 (A) (A) (A) (A) (A) (A) (A) (A) (A) (A) (A) (A)
                 (A) (A) (A) (A) (A) (A) (A) (A) (A) (A) (A) (A)
                 (A) (A) (A) (A) (A) (A) (A) (A) (A) (A) (A) (A)
                 (A) (A) (A) (A) (A) (A) (A) (A) (A) (A) (A) (A)
                 (A) (A) (A) (A) (A) (A) (A) (A) (A) (A) (A) (A)
                 (A) (A) (A) (A) (A) (A)
 The electronic state is 1-A.
 Alpha  occ. eigenvalues --  -19.61014 -14.89198 -14.85584 -14.85519 -14.78993
 Alpha  occ. eigenvalues --  -10.68625  -1.33532  -1.29612  -1.14463  -1.08970
 Alpha  occ. eigenvalues --   -0.98019  -0.78835  -0.76578  -0.72244  -0.71635
 Alpha  occ. eigenvalues --   -0.71597  -0.70310  -0.61957  -0.61484  -0.53291
 Alpha  occ. eigenvalues --   -0.47075  -0.46105  -0.42784  -0.39059  -0.34518
 Alpha  occ. eigenvalues --   -0.30925  -0.07425
 Alpha virt. eigenvalues --   -0.00684   0.03475   0.04139   0.05082   0.05777
 Alpha virt. eigenvalues --    0.05847   0.06157   0.06182   0.07484   0.09698
 Alpha virt. eigenvalues --    0.10475   0.11389   0.14172   0.15739   0.15847
 Alpha virt. eigenvalues --    0.15949   0.17998   0.18664   0.24002   0.27701
 Alpha virt. eigenvalues --    0.29938   0.37137   0.41729   0.47871   0.52673
 Alpha virt. eigenvalues --    0.53438   0.56023   0.57845   0.66732   0.69928
 Alpha virt. eigenvalues --    0.70960   0.74132   0.79454   0.79886   0.81788
 Alpha virt. eigenvalues --    0.83864   0.85698   0.90217   0.91328   0.94403
 Alpha virt. eigenvalues --    0.95641   1.00318   1.03985   1.09386   1.11527
 Alpha virt. eigenvalues --    1.12208   1.14603   1.21189   1.25592   1.31704
 Alpha virt. eigenvalues --    1.34420   1.37848   1.53003   1.55367   1.60676
 Alpha virt. eigenvalues --    1.62628   1.73727   1.78146   1.81989   1.91126
 Alpha virt. eigenvalues --    1.92799   1.97587   2.00491   2.01730   2.12263
 Alpha virt. eigenvalues --    2.16746   2.20960   2.37949   2.40721   2.47545
 Alpha virt. eigenvalues --    2.47913   2.54262   2.57140   2.74771   2.76516
 Alpha virt. eigenvalues --    2.77896   2.82392   2.86226   2.91510   2.97085
 Alpha virt. eigenvalues --    3.01692   3.09732   3.21086   3.22517   3.32674
 Alpha virt. eigenvalues --    3.37274   3.58994   3.65147   3.76670  83.09077
          Condensed to atoms (all electrons):
               1          2          3          4          5          6
     1  Ba  10.055342   0.034753  -0.052532  -0.083517   0.012267   0.007354
     2  O    0.034753   7.893377   0.634780  -0.091868   0.003303   0.003039
     3  C   -0.052532   0.634780   4.622676   0.250903  -0.096090  -0.057587
     4  N   -0.083517  -0.091868   0.250903   6.728117   0.145884  -0.043525
     5  N    0.012267   0.003303  -0.096090   0.145884   6.421589   0.183408
     6  N    0.007354   0.003039  -0.057587  -0.043525   0.183408   6.668969
     7  N   -0.047616  -0.073618   0.346144  -0.107603  -0.067181   0.278795
     8  H    0.061810   0.000207  -0.006423   0.327683  -0.019286   0.005769
     9  H   -0.001822  -0.000055   0.004621  -0.026885   0.384310  -0.023174
               7          8          9
     1  Ba  -0.047616   0.061810  -0.001822
     2  O   -0.073618   0.000207  -0.000055
     3  C    0.346144  -0.006423   0.004621
     4  N   -0.107603   0.327683  -0.026885
     5  N   -0.067181  -0.019286   0.384310
     6  N    0.278795   0.005769  -0.023174
     7  N    6.930031   0.002288   0.003935
     8  H    0.002288   0.464004  -0.002607
     9  H    0.003935  -0.002607   0.436164
 Mulliken charges:
               1
     1  Ba   0.013962
     2  O   -0.403918
     3  C    0.353507
     4  N   -0.099189
     5  N    0.031796
     6  N   -0.023048
     7  N   -0.265176
     8  H    0.166555
     9  H    0.225512
 Sum of Mulliken charges =  -0.00000
 Mulliken charges with hydrogens summed into heavy atoms:
               1
     1  Ba   0.013962
     2  O   -0.403918
     3  C    0.353507
     4  N    0.067365
     5  N    0.257308
     6  N   -0.023048
     7  N   -0.265176
 Electronic spatial extent (au):  <R**2>=           1514.2592
 Charge=             -0.0000 electrons
 Dipole moment (field-independent basis, Debye):
    X=              2.1642    Y=              4.1622    Z=              0.1850  Tot=              4.6949
 Quadrupole moment (field-independent basis, Debye-Ang):
   XX=            -50.1068   YY=            -78.3349   ZZ=            -78.9007
   XY=            -21.2006   XZ=             -2.7513   YZ=             -0.5960
 Traceless Quadrupole moment (field-independent basis, Debye-Ang):
   XX=             19.0073   YY=             -9.2208   ZZ=             -9.7866
   XY=            -21.2006   XZ=             -2.7513   YZ=             -0.5960
 Octapole moment (field-independent basis, Debye-Ang**2):
  XXX=             30.2549  YYY=             -2.8207  ZZZ=              6.7272  XYY=             -6.9615
  XXY=             67.0455  XXZ=             -2.2360  XZZ=             14.0262  YZZ=             -5.1080
  YYZ=              3.4207  XYZ=              4.8455
 Hexadecapole moment (field-independent basis, Debye-Ang**3):
 XXXX=          -2199.1795 YYYY=           -498.1750 ZZZZ=           -374.8450 XXXY=           -248.7010
 XXXZ=            -33.0938 YYYX=            -92.2083 YYYZ=             -3.7360 ZZZX=             -8.8081
 ZZZY=             -4.2591 XXYY=           -433.1612 XXZZ=           -461.4899 YYZZ=           -146.4907
 XXYZ=            -39.7913 YYXZ=             -0.8098 ZZXY=            -14.9727
 N-N= 2.908236654533D+02 E-N=-1.408790698857D+03  KE= 3.379585088446D+02
 PrsmSu:  requested number of processors reduced to:  22 ShMem   1 Linda.
   1 Symmetry operations used in ECPInt.
 ECPInt:  NShTT=    1326 NPrTT=    5049 LenC2=    1323 LenP2D=    4246.
 LDataN:  DoStor=T MaxTD1= 7 Len=  274
 Number of processors reduced to  23 by ecpmxn.
 D1PCM: PCM CHGder 1st derivatives, ID1Alg=3 FixD1E=F DoIter=F DoCFld=F I1PDM=0.
 CoulSu:  requested number of processors reduced to:  48 ShMem   1 Linda.
 CoulSu:  requested number of processors reduced to:  48 ShMem   1 Linda.
 CoulSu:  requested number of processors reduced to:  29 ShMem   1 Linda.
 CoulSu:  requested number of processors reduced to:  30 ShMem   1 Linda.
 Calling FoFJK, ICntrl=      2127 FMM=F ISym2X=0 I1Cent= 0 IOpClX= 0 NMat=1 NMatS=1 NMatT=0.
 Defaulting to unpruned grid for atomic number  56.
 Defaulting to unpruned grid for atomic number  56.
 Defaulting to unpruned grid for atomic number  56.
 Defaulting to unpruned grid for atomic number  56.
 Defaulting to unpruned grid for atomic number  56.
 Defaulting to unpruned grid for atomic number  56.
 Defaulting to unpruned grid for atomic number  56.
 Defaulting to unpruned grid for atomic number  56.
 Defaulting to unpruned grid for atomic number  56.
 Defaulting to unpruned grid for atomic number  56.
 Defaulting to unpruned grid for atomic number  56.
 Defaulting to unpruned grid for atomic number  56.
 Defaulting to unpruned grid for atomic number  56.
 Defaulting to unpruned grid for atomic number  56.
 Defaulting to unpruned grid for atomic number  56.
 Defaulting to unpruned grid for atomic number  56.
 Defaulting to unpruned grid for atomic number  56.
 Defaulting to unpruned grid for atomic number  56.
 Defaulting to unpruned grid for atomic number  56.
 Defaulting to unpruned grid for atomic number  56.
 Defaulting to unpruned grid for atomic number  56.
 Defaulting to unpruned grid for atomic number  56.
 Defaulting to unpruned grid for atomic number  56.
 Defaulting to unpruned grid for atomic number  56.
[...]
 Defaulting to unpruned grid for atomic number  56.
 Defaulting to unpruned grid for atomic number  56.
 Defaulting to unpruned grid for atomic number  56.
 Defaulting to unpruned grid for atomic number  56.
 Defaulting to unpruned grid for atomic number  56.
 Defaulting to unpruned grid for atomic number  56.
 Defaulting to unpruned grid for atomic number  56.
 Defaulting to unpruned grid for atomic number  56.
 Defaulting to unpruned grid for atomic number  56.
 Defaulting to unpruned grid for atomic number  56.
 Defaulting to unpruned grid for atomic number  56.
 Defaulting to unpruned grid for atomic number  56.
 Defaulting to unpruned grid for atomic number  56.
 Defaulting to unpruned grid for atomic number  56.
 Defaulting to unpruned grid for atomic number  56.
 Defaulting to unpruned grid for atomic number  56.
 Defaulting to unpruned grid for atomic number  56.
 Defaulting to unpruned grid for atomic number  56.
 Defaulting to unpruned grid for atomic number  56.
 ***** Axes restored to original set *****
 -------------------------------------------------------------------
 Center     Atomic                   Forces (Hartrees/Bohr)
 Number     Number              X              Y              Z
 -------------------------------------------------------------------
      1       56           0.001672368    0.001662559    0.002288854
      2        8          -0.022485949    0.013388859   -0.003706438
      3        6           0.015696881    0.012021194    0.026580810
      4        7          -0.037572597    0.008252464   -0.014792899
      5        7          -0.005874173   -0.013572259    0.001713441
      6        7           0.002298786   -0.009341634   -0.003235053
      7        7           0.032367492   -0.017979525   -0.004613829
      8        1          -0.000277672   -0.001441135   -0.004877462
      9        1           0.014174864    0.007009477    0.000642576
 -------------------------------------------------------------------
 Cartesian Forces:  Max     0.037572597 RMS     0.014270893

 GradGradGradGradGradGradGradGradGradGradGradGradGradGradGradGradGradGrad
 Berny optimization.
 Using GEDIIS/GDIIS optimizer.
 FormGI is forming the generalized inverse of G from B-inverse, IUseBI=4.
 Internal  Forces:  Max     0.034917834 RMS     0.011237272
 Search for a local minimum.
 Step number  10 out of a maximum of   10
 All quantities printed in internal units (Hartrees-Bohrs-Radians)
 Mixed Optimization -- RFO/linear search
 Update second derivatives using D2CorX and points    9   10
 DE= -2.28D-02 DEPred=-3.20D-02 R= 7.12D-01
 TightC=F SS=  1.41D+00  RLast= 1.08D+00 DXNew= 4.9866D+00 3.2432D+00
 Trust test= 7.12D-01 RLast= 1.08D+00 DXMaxT set to 3.00D+00
 ITU=  1  1  1  1  1  1  1  1  1  0
 Use linear search instead of GDIIS.
     Eigenvalues ---    0.00627   0.02124   0.03402   0.03945   0.04603
     Eigenvalues ---    0.07510   0.09263   0.10083   0.11860   0.19822
     Eigenvalues ---    0.25238   0.28454   0.31973   0.37753   0.44404
     Eigenvalues ---    0.48540   0.50861   0.58197   0.72025   0.90221
     Eigenvalues ---    1.36256
 RFO step:  Lambda=-8.37241850D-03 EMin= 6.27113285D-03
 Quartic linear search produced a step of -0.18895.
 Iteration  1 RMS(Cart)=  0.07317667 RMS(Int)=  0.00338342
 Iteration  2 RMS(Cart)=  0.00309518 RMS(Int)=  0.00150409
 Iteration  3 RMS(Cart)=  0.00000753 RMS(Int)=  0.00150408
 Iteration  4 RMS(Cart)=  0.00000001 RMS(Int)=  0.00150408
 Variable       Old X    -DE/DX   Delta X   Delta X   Delta X     New X
                                 (Linear)    (Quad)   (Total)
    R1        4.88761  -0.00114   0.00016  -0.07281  -0.07265   4.81496
    R2        2.53559  -0.02217  -0.00405  -0.02246  -0.02651   2.50908
    R3        2.73683   0.02083  -0.01110   0.03390   0.02307   2.75990
    R4        2.49556  -0.03492  -0.01952  -0.01552  -0.03433   2.46124
    R5        2.79141  -0.01894   0.00417  -0.02560  -0.02190   2.76951
    R6        1.98705  -0.00001   0.02890  -0.02816   0.00074   1.98778
    R7        2.84159  -0.00733  -0.00714  -0.01501  -0.02278   2.81881
    R8        1.95956  -0.01402  -0.01599  -0.00009  -0.01607   1.94348
    R9        2.55060   0.00503   0.03131  -0.00043   0.03111   2.58171
    A1        1.76107   0.01032   0.00957   0.00300   0.01258   1.77364
    A2        1.95420   0.02693   0.02870   0.03731   0.06695   2.02115
    A3        2.35210  -0.01602  -0.04010   0.00634  -0.03384   2.31826
    A4        1.96090  -0.01142   0.00442  -0.04736  -0.04301   1.91789
    A5        1.71006   0.00923   0.00308   0.02753   0.02995   1.74001
    A6        1.76677   0.00452   0.05621   0.00223   0.06178   1.82855
    A7        1.90138  -0.00132   0.02761  -0.01302   0.01957   1.92095
    A8        1.84765  -0.01088   0.00073  -0.04620  -0.04666   1.80099
    A9        1.86298  -0.00137  -0.00440   0.00083  -0.00125   1.86173
   A10        1.77101   0.00716   0.02405   0.02997   0.05444   1.82546
   A11        1.79468   0.00395  -0.01083   0.01186  -0.00029   1.79439
   A12        1.95100   0.00572   0.00072   0.00492   0.00494   1.95594
    D1        0.48332   0.00676  -0.04570   0.17762   0.13281   0.61614
    D2       -2.87025   0.00336  -0.07471   0.14870   0.07309  -2.79716
    D3       -2.90569   0.00017  -0.03857   0.02155  -0.01624  -2.92193
    D4        1.43629  -0.00195  -0.09296   0.02728  -0.06275   1.37354
    D5        0.39813   0.00459  -0.00592   0.03932   0.03240   0.43053
    D6       -1.54307   0.00246  -0.06031   0.04506  -0.01411  -1.55718
    D7       -3.04458   0.00175   0.03593   0.04391   0.08201  -2.96257
    D8       -0.11556   0.00170   0.01140   0.02236   0.03473  -0.08083
    D9       -0.50790  -0.00416  -0.00340  -0.07259  -0.07454  -0.58244
   D10       -2.38483  -0.00720  -0.02887  -0.08763  -0.11560  -2.50043
   D11        1.32176   0.00405   0.07419  -0.06245   0.01107   1.33284
   D12       -0.55517   0.00101   0.04873  -0.07749  -0.02999  -0.58515
   D13        0.47483   0.00459   0.00478   0.08291   0.08578   0.56061
   D14        2.41734   0.00227   0.01024   0.08015   0.08816   2.50551
   D15       -0.22557  -0.00366  -0.01144  -0.06569  -0.07834  -0.30391
         Item               Value     Threshold  Converged?
 Maximum Force            0.034918     0.000450     NO 
 RMS     Force            0.011237     0.000300     NO 
 Maximum Displacement     0.178194     0.001800     NO 
 RMS     Displacement     0.073463     0.001200     NO 
 Predicted change in Energy=-6.092627D-03
 Optimization stopped.
    -- Number of steps exceeded,  NStep=  10
    -- Flag reset to prevent archiving.
                           ----------------------------
                           ! Non-Optimized Parameters !
                           ! (Angstroms and Degrees)  !
 --------------------------                            --------------------------
 ! Name  Definition              Value          Derivative Info.                !
 --------------------------------------------------------------------------------
 ! R1    R(1,2)                  2.548          -DE/DX =   -0.0011              !
 ! R2    R(2,3)                  1.3277         -DE/DX =   -0.0222              !
 ! R3    R(3,4)                  1.4605         -DE/DX =    0.0208              !
 ! R4    R(3,7)                  1.3024         -DE/DX =   -0.0349              !
 ! R5    R(4,5)                  1.4656         -DE/DX =   -0.0189              !
 ! R6    R(4,8)                  1.0519         -DE/DX =    0.0                 !
 ! R7    R(5,6)                  1.4916         -DE/DX =   -0.0073              !
 ! R8    R(5,9)                  1.0284         -DE/DX =   -0.014               !
 ! R9    R(6,7)                  1.3662         -DE/DX =    0.005               !
 ! A1    A(1,2,3)              101.6223         -DE/DX =    0.0103              !
 ! A2    A(2,3,4)              115.8035         -DE/DX =    0.0269              !
 ! A3    A(2,3,7)              132.8265         -DE/DX =   -0.016               !
 ! A4    A(4,3,7)              109.887          -DE/DX =   -0.0114              !
 ! A5    A(3,4,5)               99.6953         -DE/DX =    0.0092              !
 ! A6    A(3,4,8)              104.7682         -DE/DX =    0.0045              !
 ! A7    A(5,4,8)              110.0625         -DE/DX =   -0.0013              !
 ! A8    A(4,5,6)              103.1892         -DE/DX =   -0.0109              !
 ! A9    A(4,5,9)              106.6691         -DE/DX =   -0.0014              !
 ! A10   A(6,5,9)              104.5909         -DE/DX =    0.0072              !
 ! A11   A(5,6,7)              102.811          -DE/DX =    0.0039              !
 ! A12   A(3,7,6)              112.0668         -DE/DX =    0.0057              !
 ! D1    D(1,2,3,4)             35.3022         -DE/DX =    0.0068              !
 ! D2    D(1,2,3,7)           -160.2653         -DE/DX =    0.0034              !
 ! D3    D(2,3,4,5)           -167.4145         -DE/DX =    0.0002              !
 ! D4    D(2,3,4,8)             78.698          -DE/DX =   -0.0019              !
 ! D5    D(7,3,4,5)             24.6676         -DE/DX =    0.0046              !
 ! D6    D(7,3,4,8)            -89.22           -DE/DX =    0.0025              !
 ! D7    D(2,3,7,6)           -169.7429         -DE/DX =    0.0017              !
 ! D8    D(4,3,7,6)             -4.6313         -DE/DX =    0.0017              !
 ! D9    D(3,4,5,6)            -33.3711         -DE/DX =   -0.0042              !
 ! D10   D(3,4,5,9)           -143.2639         -DE/DX =   -0.0072              !
 ! D11   D(8,4,5,6)             76.3659         -DE/DX =    0.004               !
 ! D12   D(8,4,5,9)            -33.5269         -DE/DX =    0.001               !
 ! D13   D(4,5,6,7)             32.1204         -DE/DX =    0.0046              !
 ! D14   D(9,5,6,7)            143.5549         -DE/DX =    0.0023              !
 ! D15   D(5,6,7,3)            -17.4125         -DE/DX =   -0.0037              !
 --------------------------------------------------------------------------------
 GradGradGradGradGradGradGradGradGradGradGradGradGradGradGradGradGradGrad

                          Input orientation:                          
 ---------------------------------------------------------------------
 Center     Atomic      Atomic             Coordinates (Angstroms)
 Number     Number       Type             X           Y           Z
 ---------------------------------------------------------------------
      1         56           0       14.530947    2.004661    0.414860
      2          8           0       12.982888    2.842107    2.310040
      3          6           0       11.945002    3.311694    1.601066
      4          7           0       11.801904    2.628002    0.332378
      5          7           0       10.856981    3.569349   -0.302412
      6          7           0       10.066171    4.178746    0.822036
      7          7           0       10.919043    4.100123    1.865190
      8          1           0       11.278750    1.763585    0.623491
      9          1           0       10.134635    2.994492   -0.774670
 ---------------------------------------------------------------------
                    Distance matrix (angstroms):
                    1          2          3          4          5
     1  Ba   0.000000
     2  O    2.586409   0.000000
     3  C    3.130900   1.341776   0.000000
     4  N    2.800541   2.313376   1.448268   0.000000
     5  N    4.057186   3.445760   2.207579   1.477151   0.000000
     6  N    4.982636   3.536664   2.211034   2.378517   1.503705
     7  N    4.420438   2.457631   1.320596   2.301326   2.232504
     8  H    3.267787   2.629019   1.948380   1.051500   2.072671
     9  H    4.660720   4.201333   3.003692   2.034615   1.036953
                    6          7          8          9
     6  N    0.000000
     7  N    1.349720   0.000000
     8  H    2.709755   2.670322   0.000000
     9  H    1.989124   2.967588   2.186089   0.000000
 Stoichiometry    CH2BaN4O
 Framework group  C1[X(CH2BaN4O)]
 Deg. of freedom    21
 Full point group                 C1      NOp   1
 Largest Abelian subgroup         C1      NOp   1
 Largest concise Abelian subgroup C1      NOp   1
                         Standard orientation:                         
 ---------------------------------------------------------------------
 Center     Atomic      Atomic             Coordinates (Angstroms)
 Number     Number       Type             X           Y           Z
 ---------------------------------------------------------------------
      1         56           0        1.519931    0.101120    0.047430
      2          8           0       -0.447225   -1.558252   -0.210044
      3          6           0       -1.495099   -0.738748   -0.034728
      4          7           0       -1.190564    0.621654   -0.427216
      5          7           0       -2.359566    1.279966    0.190874
      6          7           0       -3.458385    0.253458    0.188222
      7          7           0       -2.779269   -0.912543    0.219588
      8          1           0       -1.336987    0.572328   -1.467302
      9          1           0       -2.716291    1.965704   -0.500344
 ---------------------------------------------------------------------
 Rotational constants (GHZ):           5.0835299           0.6916703           0.6201781

 **********************************************************************

            Population analysis using the SCF density.

 **********************************************************************

 Orbital symmetries:
       Occupied  (A) (A) (A) (A) (A) (A) (A) (A) (A) (A) (A) (A)
                 (A) (A) (A) (A) (A) (A) (A) (A) (A) (A) (A) (A)
                 (A) (A) (A)
       Virtual   (A) (A) (A) (A) (A) (A) (A) (A) (A) (A) (A) (A)
                 (A) (A) (A) (A) (A) (A) (A) (A) (A) (A) (A) (A)
                 (A) (A) (A) (A) (A) (A) (A) (A) (A) (A) (A) (A)
                 (A) (A) (A) (A) (A) (A) (A) (A) (A) (A) (A) (A)
                 (A) (A) (A) (A) (A) (A) (A) (A) (A) (A) (A) (A)
                 (A) (A) (A) (A) (A) (A) (A) (A) (A) (A) (A) (A)
                 (A) (A) (A) (A) (A) (A) (A) (A) (A) (A) (A) (A)
                 (A) (A) (A) (A) (A) (A)
 The electronic state is 1-A.
 Alpha  occ. eigenvalues --  -19.54111 -14.75387 -14.75113 -14.70478 -14.67661
 Alpha  occ. eigenvalues --  -10.57269  -1.33641  -1.09646  -1.01324  -0.93544
 Alpha  occ. eigenvalues --   -0.83610  -0.72178  -0.71885  -0.71711  -0.67310
 Alpha  occ. eigenvalues --   -0.58324  -0.54919  -0.48413  -0.43920  -0.41815
 Alpha  occ. eigenvalues --   -0.37221  -0.34927  -0.30786  -0.29965  -0.27863
 Alpha  occ. eigenvalues --   -0.25849  -0.12315
 Alpha virt. eigenvalues --   -0.00712   0.03968   0.04077   0.04593   0.05751
 Alpha virt. eigenvalues --    0.06135   0.07270   0.08068   0.08588   0.11518
 Alpha virt. eigenvalues --    0.14270   0.14971   0.15240   0.15837   0.16238
 Alpha virt. eigenvalues --    0.17747   0.18953   0.21794   0.27112   0.30290
 Alpha virt. eigenvalues --    0.35593   0.36818   0.51293   0.51951   0.59623
 Alpha virt. eigenvalues --    0.63409   0.64114   0.70790   0.72018   0.73770
 Alpha virt. eigenvalues --    0.80541   0.84952   0.87764   0.87872   0.90219
 Alpha virt. eigenvalues --    0.91395   0.94306   0.94979   0.96707   1.01857
 Alpha virt. eigenvalues --    1.02864   1.04726   1.10082   1.15444   1.17020
 Alpha virt. eigenvalues --    1.20234   1.22696   1.24557   1.32011   1.38704
 Alpha virt. eigenvalues --    1.47999   1.51386   1.60200   1.61906   1.68755
 Alpha virt. eigenvalues --    1.74976   1.81498   1.89313   1.94717   1.97750
 Alpha virt. eigenvalues --    2.04454   2.06523   2.13081   2.15151   2.18386
 Alpha virt. eigenvalues --    2.19229   2.25184   2.33061   2.40178   2.43002
 Alpha virt. eigenvalues --    2.50792   2.63593   2.71903   2.77175   2.83481
 Alpha virt. eigenvalues --    2.85043   2.86004   2.90701   2.95732   2.96483
 Alpha virt. eigenvalues --    3.02704   3.16563   3.17284   3.23727   3.34063
 Alpha virt. eigenvalues --    3.35783   3.43880   3.53141   3.71029  83.09787
          Condensed to atoms (all electrons):
               1          2          3          4          5          6
     1  Ba   8.268723   0.135110  -0.020258   0.014299   0.050033  -0.001048
     2  O    0.135110   8.255481   0.394661  -0.105461   0.003237   0.002294
     3  C   -0.020258   0.394661   5.041984   0.171254  -0.057580  -0.104520
     4  N    0.014299  -0.105461   0.171254   7.058734   0.156466  -0.062782
     5  N    0.050033   0.003237  -0.057580   0.156466   6.699743   0.108308
     6  N   -0.001048   0.002294  -0.104520  -0.062782   0.108308   7.326347
     7  N   -0.016894  -0.050937   0.481639  -0.097229  -0.063972   0.202306
     8  H    0.047486   0.007829  -0.037741   0.180970  -0.006772   0.025199
     9  H   -0.010811  -0.000308   0.002407   0.001179   0.286120  -0.013056
               7          8          9
     1  Ba  -0.016894   0.047486  -0.010811
     2  O   -0.050937   0.007829  -0.000308
     3  C    0.481639  -0.037741   0.002407
     4  N   -0.097229   0.180970   0.001179
     5  N   -0.063972  -0.006772   0.286120
     6  N    0.202306   0.025199  -0.013056
     7  N    6.824434  -0.021641   0.007379
     8  H   -0.021641   0.712171  -0.017578
     9  H    0.007379  -0.017578   0.633206
 Mulliken charges:
               1
     1  Ba   1.533361
     2  O   -0.641905
     3  C    0.128153
     4  N   -0.317430
     5  N   -0.175583
     6  N   -0.483048
     7  N   -0.265086
     8  H    0.110079
     9  H    0.111460
 Sum of Mulliken charges =  -0.00000
 Mulliken charges with hydrogens summed into heavy atoms:
               1
     1  Ba   1.533361
     2  O   -0.641905
     3  C    0.128153
     4  N   -0.207351
     5  N   -0.064124
     6  N   -0.483048
     7  N   -0.265086
 Electronic spatial extent (au):  <R**2>=           1174.6165
 Charge=             -0.0000 electrons
 Dipole moment (field-independent basis, Debye):
    X=             28.5863    Y=              6.5162    Z=             -2.0273  Tot=             29.3896
 Quadrupole moment (field-independent basis, Debye-Ang):
   XX=            -83.0226   YY=            -67.0770   ZZ=            -54.5568
   XY=             -3.9920   XZ=              8.8635   YZ=             -3.6166
 Traceless Quadrupole moment (field-independent basis, Debye-Ang):
   XX=            -14.8038   YY=              1.1418   ZZ=             13.6620
   XY=             -3.9920   XZ=              8.8635   YZ=             -3.6166
 Octapole moment (field-independent basis, Debye-Ang**2):
  XXX=            353.8447  YYY=             33.3088  ZZZ=             -0.0792  XYY=             60.2841
  XXY=             15.8733  XXZ=            -20.4884  XZZ=             52.8564  YZZ=              4.9425
  YYZ=             -3.2169  XYZ=              5.7975
 Hexadecapole moment (field-independent basis, Debye-Ang**3):
 XXXX=          -1984.7270 YYYY=           -329.8179 ZZZZ=            -96.0305 XXXY=            -16.4909
 XXXZ=             73.9836 YYYX=            -20.2405 YYYZ=            -13.3117 ZZZX=             19.4663
 ZZZY=             -4.9391 XXYY=           -295.8582 XXZZ=           -255.2386 YYZZ=            -69.3032
 XXYZ=            -14.1702 YYXZ=             19.2749 ZZXY=              2.6393
 N-N= 2.904146899007D+02 E-N=-1.415093692871D+03  KE= 3.375769458159D+02


 WE HAVE LEFT UNDONE THOSE THINGS WHICH WE OUGHT TO HAVE DONE,
 AND WE HAVE DONE THOSE THINGS WHICH WE OUGHT NOT TO HAVE DONE.
                   BOOK OF COMMON PRAYER                      
 Error termination request processed by link 9999.
 Error termination via Lnk1e in /home/pub/g16/l9999.exe at Wed Apr 26 07:05:51 2023.
 Job cpu time:       0 days  0 hours 47 minutes 24.9 seconds.
 Elapsed time:       0 days  0 hours  1 minutes  7.1 seconds.
 File lengths (MBytes):  RWF=     33 Int=      0 D2E=      0 Chk=      4 Scr=      1
