 Entering Gaussian System, Link 0=g16
 Initial command:
 /home/pub/g16/l1.exe "/home/zz1/gauss/SCRDIR/Gau-21556.inp" -scrdir="/home/zz1/gauss/SCRDIR/"
 Entering Link 1 = /home/pub/g16/l1.exe PID=     21558.
  
 Copyright (c) 1988,1990,1992,1993,1995,1998,2003,2009,2016,
            Gaussian, Inc.  All Rights Reserved.
  
 This is part of the Gaussian(R) 16 program.  It is based on
 the Gaussian(R) 09 system (copyright 2009, Gaussian, Inc.),
 the Gaussian(R) 03 system (copyright 2003, Gaussian, Inc.),
 the Gaussian(R) 98 system (copyright 1998, Gaussian, Inc.),
 the Gaussian(R) 94 system (copyright 1995, Gaussian, Inc.),
 the Gaussian 92(TM) system (copyright 1992, Gaussian, Inc.),
 the Gaussian 90(TM) system (copyright 1990, Gaussian, Inc.),
 the Gaussian 88(TM) system (copyright 1988, Gaussian, Inc.),
 the Gaussian 86(TM) system (copyright 1986, Carnegie Mellon
 University), and the Gaussian 82(TM) system (copyright 1983,
 Carnegie Mellon University). Gaussian is a federally registered
 trademark of Gaussian, Inc.
  
 This software contains proprietary and confidential information,
 including trade secrets, belonging to Gaussian, Inc.
  
 This software is provided under written license and may be
 used, copied, transmitted, or stored only in accord with that
 written license.
  
 The following legend is applicable only to US Government
 contracts under FAR:
  
                    RESTRICTED RIGHTS LEGEND
  
 Use, reproduction and disclosure by the US Government is
 subject to restrictions as set forth in subparagraphs (a)
 and (c) of the Commercial Computer Software - Restricted
 Rights clause in FAR 52.227-19.
  
 Gaussian, Inc.
 340 Quinnipiac St., Bldg. 40, Wallingford CT 06492
  
  
 ---------------------------------------------------------------
 Warning -- This program may not be used in any manner that
 competes with the business of Gaussian, Inc. or will provide
 assistance to any competitor of Gaussian, Inc.  The licensee
 of this program is prohibited from giving any competitor of
 Gaussian, Inc. access to this program.  By using this program,
 the user acknowledges that Gaussian, Inc. is engaged in the
 business of creating and licensing software in the field of
 computational chemistry and represents and warrants to the
 licensee that it is not a competitor of Gaussian, Inc. and that
 it will not use this program in any manner prohibited above.
 ---------------------------------------------------------------
  

 Cite this work as:
 Gaussian 16, Revision A.03,
 M. J. Frisch, G. W. Trucks, H. B. Schlegel, G. E. Scuseria, 
 M. A. Robb, J. R. Cheeseman, G. Scalmani, V. Barone, 
 G. A. Petersson, H. Nakatsuji, X. Li, M. Caricato, A. V. Marenich, 
 J. Bloino, B. G. Janesko, R. Gomperts, B. Mennucci, H. P. Hratchian, 
 J. V. Ortiz, A. F. Izmaylov, J. L. Sonnenberg, D. Williams-Young, 
 F. Ding, F. Lipparini, F. Egidi, J. Goings, B. Peng, A. Petrone, 
 T. Henderson, D. Ranasinghe, V. G. Zakrzewski, J. Gao, N. Rega, 
 G. Zheng, W. Liang, M. Hada, M. Ehara, K. Toyota, R. Fukuda, 
 J. Hasegawa, M. Ishida, T. Nakajima, Y. Honda, O. Kitao, H. Nakai, 
 T. Vreven, K. Throssell, J. A. Montgomery, Jr., J. E. Peralta, 
 F. Ogliaro, M. J. Bearpark, J. J. Heyd, E. N. Brothers, K. N. Kudin, 
 V. N. Staroverov, T. A. Keith, R. Kobayashi, J. Normand, 
 K. Raghavachari, A. P. Rendell, J. C. Burant, S. S. Iyengar, 
 J. Tomasi, M. Cossi, J. M. Millam, M. Klene, C. Adamo, R. Cammi, 
 J. W. Ochterski, R. L. Martin, K. Morokuma, O. Farkas, 
 J. B. Foresman, and D. J. Fox, Gaussian, Inc., Wallingford CT, 2016.
 
 ******************************************
 Gaussian 16:  ES64L-G16RevA.03 25-Dec-2016
                16-Jun-2023 
 ******************************************
 %chk=/home/zz1/proj/gauss/new/chk/Ba-KAJFOU-51/123.chk
 %CPU=0-48
 SetSPE:  set environment variable "MP_BIND" = "yes"
 SetSPE:  set environment variable "MP_BLIST" = "0,1,2,3,4,5,6,7,8,9,10,11,12,13,14,15,16,17,18,19,20,21,22,23,24,25,26,27,28,29,30,31,32,33,34,35,36,37,38,39,40,41,42,43,44,45,46,47,48"
 Will use up to   49 processors via shared memory.
 ----------------------------------------------------
 # M062X/Def2SVP opt(MaxCyc=10)/freq SCRF pop(Always)
 ----------------------------------------------------
 1/6=10,18=20,19=15,26=3,38=1/1,3;
 2/9=110,12=2,17=6,18=5,40=1/2;
 3/5=43,7=101,11=2,25=1,30=1,70=2201,71=1,74=-55/1,2,3;
 4//1;
 5/5=2,38=5/2;
 6/7=2,8=2,9=2,10=2,28=1/1;
 7//1,2,3,16;
 1/6=10,18=20,19=15,26=3/3(2);
 2/9=110/2;
 99//99;
 2/9=110/2;
 3/5=43,7=101,11=2,25=1,30=1,70=2205,71=1,74=-55/1,2,3;
 4/5=5,16=3,69=1/1;
 5/5=2,38=5/2;
 6/7=2,8=2,9=2,10=2,28=1/1;
 7//1,2,3,16;
 1/6=10,18=20,19=15,26=3/3(-6);
 2/9=110/2;
 6/7=2,8=2,9=2,10=2,19=2,28=1/1;
 99/9=1/99;
 ------------
 Ba-KAJFOU-51
 ------------
 Symbolic Z-matrix:
 Charge =  0 Multiplicity = 1
 O                     7.16097  -1.30593   13.19415 
 B                     6.13155   0.12817   13.40028 
 O                     7.17452   1.24005   13.28722 
 Ba                    4.66223   2.67079   13.55807 
 O                     4.90956   0.17129   13.15239 
 H                     7.55269  -1.39033   13.9111 
 
 Add virtual bond connecting atoms B2         and O1         Dist= 3.36D+00.

 GradGradGradGradGradGradGradGradGradGradGradGradGradGradGradGradGradGrad
 Berny optimization.
 Initialization pass.
                           ----------------------------
                           !    Initial Parameters    !
                           ! (Angstroms and Degrees)  !
 --------------------------                            --------------------------
 ! Name  Definition              Value          Derivative Info.                !
 --------------------------------------------------------------------------------
 ! R1    R(1,2)                  1.7773         estimate D2E/DX2                !
 ! R2    R(1,6)                  0.8213         estimate D2E/DX2                !
 ! R3    R(2,3)                  1.5287         estimate D2E/DX2                !
 ! R4    R(2,4)                  2.9409         estimate D2E/DX2                !
 ! R5    R(2,5)                  1.2476         estimate D2E/DX2                !
 ! R6    R(3,4)                  2.9038         estimate D2E/DX2                !
 ! R7    R(4,5)                  2.5443         estimate D2E/DX2                !
 ! A1    A(2,1,6)              104.9465         estimate D2E/DX2                !
 ! A2    A(1,2,3)              100.5529         estimate D2E/DX2                !
 ! A3    A(1,2,5)              124.8998         estimate D2E/DX2                !
 ! A4    A(3,2,5)              128.9336         estimate D2E/DX2                !
 ! A5    A(3,4,5)               54.3364         estimate D2E/DX2                !
 ! A6    L(1,2,4,3,-1)         174.0534         estimate D2E/DX2                !
 ! A7    L(1,2,4,3,-2)         176.8864         estimate D2E/DX2                !
 ! D1    D(6,1,2,3)             75.7794         estimate D2E/DX2                !
 ! D2    D(6,1,2,5)           -128.8031         estimate D2E/DX2                !
 ! D3    D(5,3,4,2)             10.5275         estimate D2E/DX2                !
 --------------------------------------------------------------------------------
 Trust Radius=3.00D-01 FncErr=1.00D-07 GrdErr=1.00D-06 EigMax=2.50D+02 EigMin=1.00D-04
 Number of steps in this run=     10 maximum allowed number of steps=    100.
 GradGradGradGradGradGradGradGradGradGradGradGradGradGradGradGradGradGrad

                          Input orientation:                          
 ---------------------------------------------------------------------
 Center     Atomic      Atomic             Coordinates (Angstroms)
 Number     Number       Type             X           Y           Z
 ---------------------------------------------------------------------
      1          8           0        7.160970   -1.305930   13.194150
      2          5           0        6.131550    0.128170   13.400280
      3          8           0        7.174520    1.240050   13.287220
      4         56           0        4.662230    2.670790   13.558070
      5          8           0        4.909560    0.171290   13.152390
      6          1           0        7.552690   -1.390330   13.911100
 ---------------------------------------------------------------------
                    Distance matrix (angstroms):
                    1          2          3          4          5
     1  O    0.000000
     2  B    1.777312   0.000000
     3  O    2.547717   1.528675   0.000000
     4  Ba   4.710673   2.940870   2.903787   0.000000
     5  O    2.693097   1.247625   2.508081   2.544258   0.000000
     6  H    0.821331   2.141592   2.729677   4.997208   3.162346
                    6
     6  H    0.000000
 Stoichiometry    BBaHO3
 Framework group  C1[X(BBaHO3)]
 Deg. of freedom    12
 Full point group                 C1      NOp   1
 Largest Abelian subgroup         C1      NOp   1
 Largest concise Abelian subgroup C1      NOp   1
                         Standard orientation:                         
 ---------------------------------------------------------------------
 Center     Atomic      Atomic             Coordinates (Angstroms)
 Number     Number       Type             X           Y           Z
 ---------------------------------------------------------------------
      1          8           0        3.592813   -0.115382    0.014890
      2          5           0        1.818065   -0.171997    0.091709
      3          8           0        1.480689    1.300907   -0.139759
      4         56           0       -1.116161    0.011091    0.017466
      5          8           0        1.125127   -1.181834   -0.146270
      6          1           0        3.825656    0.209352    0.732467
 ---------------------------------------------------------------------
 Rotational constants (GHZ):           9.8481139           1.0501634           0.9536685
 Standard basis: def2SVP (5D, 7F)
 There are    90 symmetry adapted cartesian basis functions of A   symmetry.
 There are    84 symmetry adapted basis functions of A   symmetry.
    84 basis functions,   161 primitive gaussians,    90 cartesian basis functions
    20 alpha electrons       20 beta electrons
       nuclear repulsion energy       141.6345335229 Hartrees.
 NAtoms=    6 NActive=    6 NUniq=    6 SFac= 1.00D+00 NAtFMM=   60 NAOKFM=F Big=F
 Integral buffers will be    131072 words long.
 Raffenetti 2 integral format.
 Two-electron integral symmetry is turned on.
 ------------------------------------------------------------------------------
 Polarizable Continuum Model (PCM)
 =================================
 Model                : PCM.
 Atomic radii         : UFF (Universal Force Field).
 Polarization charges : Total charges.
 Charge compensation  : None.
 Solution method      : On-the-fly selection.
 Cavity type          : Scaled VdW (van der Waals Surface) (Alpha=1.100).
 Cavity algorithm     : GePol (No added spheres)
                        Default sphere list used, NSphG=    6.
                        Lebedev-Laikov grids with approx.  5.0 points / Ang**2.
                        Smoothing algorithm: York/Karplus (Gamma=1.0000).
                        Polarization charges: spherical gaussians, with
                                              point-specific exponents (IZeta= 3).
                        Self-potential: point-specific (ISelfS= 7).
                        Self-field    : sphere-specific E.n sum rule (ISelfD= 2).
 1st derivatives      : Analytical E(r).r(x)/FMM algorithm (CHGder, D1EAlg=3).
                        Cavity 1st derivative terms included.
 Solvent              : Water, Eps=  78.355300 Eps(inf)=   1.777849
 ------------------------------------------------------------------------------
 Spheres list:
 ISph  on   Nord     Re0    Alpha      Xe            Ye            Ze
    1   O      1    1.7500  1.100      3.592813     -0.115382      0.014890
    2   B      2    2.0415  1.100      1.818065     -0.171997      0.091709
    3   O      3    1.7500  1.100      1.480689      1.300907     -0.139759
    4  Ba      4    1.8515  1.100     -1.116161      0.011091      0.017466
    5   O      5    1.7500  1.100      1.125127     -1.181834     -0.146270
    6   H      6    1.4430  1.100      3.825656      0.209352      0.732467
 ------------------------------------------------------------------------------
 One-electron integrals computed using PRISM.
 PrsmSu:  requested number of processors reduced to:  30 ShMem   1 Linda.
   1 Symmetry operations used in ECPInt.
 ECPInt:  NShTT=     666 NPrTT=    2555 LenC2=     664 LenP2D=    2244.
 LDataN:  DoStor=T MaxTD1= 6 Len=  172
 Number of processors reduced to  27 by ecpmxn.
 NBasis=    84 RedAO= T EigKep=  1.26D-02  NBF=    84
 NBsUse=    84 1.00D-06 EigRej= -1.00D+00 NBFU=    84
 Defaulting to unpruned grid for atomic number  56.
 ExpMin= 1.81D-02 ExpMax= 2.27D+03 ExpMxC= 3.41D+02 IAcc=3 IRadAn=         5 AccDes= 0.00D+00
 Harris functional with IExCor= 1009 and IRadAn=       5 diagonalized for initial guess.
 HarFok:  IExCor= 1009 AccDes= 0.00D+00 IRadAn=         5 IDoV= 1 UseB2=F ITyADJ=14
 ICtDFT=  3500011 ScaDFX=  1.000000  1.000000  1.000000  1.000000
 Defaulting to unpruned grid for atomic number  56.
 FoFCou: FMM=F IPFlag=           0 FMFlag=      100000 FMFlg1=           0
         NFxFlg=           0 DoJE=T BraDBF=F KetDBF=T FulRan=T
         wScrn=  0.000000 ICntrl=       500 IOpCl=  0 I1Cent=   200000004 NGrid=           0
         NMat0=    1 NMatS0=      1 NMatT0=    0 NMatD0=    1 NMtDS0=    0 NMtDT0=    0
 Petite list used in FoFCou.
 Keep R1 ints in memory in canonical form, NReq=51145628.
 Requested convergence on RMS density matrix=1.00D-08 within 128 cycles.
 Requested convergence on MAX density matrix=1.00D-06.
 Requested convergence on             energy=1.00D-06.
 No special actions if energy rises.
 Defaulting to unpruned grid for atomic number  56.
 Defaulting to unpruned grid for atomic number  56.
 Defaulting to unpruned grid for atomic number  56.
 Defaulting to unpruned grid for atomic number  56.
 Defaulting to unpruned grid for atomic number  56.
 Defaulting to unpruned grid for atomic number  56.
 Defaulting to unpruned grid for atomic number  56.
 Defaulting to unpruned grid for atomic number  56.
 Defaulting to unpruned grid for atomic number  56.
 Defaulting to unpruned grid for atomic number  56.
 Defaulting to unpruned grid for atomic number  56.
 Defaulting to unpruned grid for atomic number  56.
 Defaulting to unpruned grid for atomic number  56.
 Defaulting to unpruned grid for atomic number  56.
 Defaulting to unpruned grid for atomic number  56.
 Defaulting to unpruned grid for atomic number  56.
 Defaulting to unpruned grid for atomic number  56.
 Defaulting to unpruned grid for atomic number  56.
 Defaulting to unpruned grid for atomic number  56.
 Defaulting to unpruned grid for atomic number  56.
 Defaulting to unpruned grid for atomic number  56.
 Defaulting to unpruned grid for atomic number  56.
 Defaulting to unpruned grid for atomic number  56.
 Defaulting to unpruned grid for atomic number  56.
 Defaulting to unpruned grid for atomic number  56.
 Defaulting to unpruned grid for atomic number  56.
 Defaulting to unpruned grid for atomic number  56.
 Defaulting to unpruned grid for atomic number  56.
 Defaulting to unpruned grid for atomic number  56.
 Defaulting to unpruned grid for atomic number  56.
 Defaulting to unpruned grid for atomic number  56.
 Defaulting to unpruned grid for atomic number  56.
 Defaulting to unpruned grid for atomic number  56.
 Defaulting to unpruned grid for atomic number  56.
 Defaulting to unpruned grid for atomic number  56.
 Defaulting to unpruned grid for atomic number  56.
 Defaulting to unpruned grid for atomic number  56.
 Defaulting to unpruned grid for atomic number  56.
 Defaulting to unpruned grid for atomic number  56.
 Defaulting to unpruned grid for atomic number  56.
 Defaulting to unpruned grid for atomic number  56.
 Defaulting to unpruned grid for atomic number  56.
 Defaulting to unpruned grid for atomic number  56.
 Defaulting to unpruned grid for atomic number  56.
 Defaulting to unpruned grid for atomic number  56.
 Defaulting to unpruned grid for atomic number  56.
 Defaulting to unpruned grid for atomic number  56.
 Defaulting to unpruned grid for atomic number  56.
 Defaulting to unpruned grid for atomic number  56.
 CoulSu:  requested number of processors reduced to:  46 ShMem   1 Linda.
 Inv3:  Mode=1 IEnd=     2633907.
 Iteration    1 A*A^-1 deviation from unit magnitude is 2.78D-15 for    755.
 Iteration    1 A*A^-1 deviation from orthogonality  is 1.78D-15 for    937    498.
 Iteration    1 A^-1*A deviation from unit magnitude is 3.11D-15 for    726.
 Iteration    1 A^-1*A deviation from orthogonality  is 1.29D-15 for    361    260.
 CoulSu:  requested number of processors reduced to:  46 ShMem   1 Linda.
 CoulSu:  requested number of processors reduced to:  46 ShMem   1 Linda.
 CoulSu:  requested number of processors reduced to:  47 ShMem   1 Linda.
 CoulSu:  requested number of processors reduced to:  44 ShMem   1 Linda.
 Error on total polarization charges =  0.01897
 SCF Done:  E(RM062X) =  -276.446377116     A.U. after   13 cycles
            NFock= 13  Conv=0.32D-08     -V/T= 2.0785

 **********************************************************************

            Population analysis using the SCF density.

 **********************************************************************

 Orbital symmetries:
       Occupied  (A) (A) (A) (A) (A) (A) (A) (A) (A) (A) (A) (A)
                 (A) (A) (A) (A) (A) (A) (A) (A)
       Virtual   (A) (A) (A) (A) (A) (A) (A) (A) (A) (A) (A) (A)
                 (A) (A) (A) (A) (A) (A) (A) (A) (A) (A) (A) (A)
                 (A) (A) (A) (A) (A) (A) (A) (A) (A) (A) (A) (A)
                 (A) (A) (A) (A) (A) (A) (A) (A) (A) (A) (A) (A)
                 (A) (A) (A) (A) (A) (A) (A) (A) (A) (A) (A) (A)
                 (A) (A) (A) (A)
 The electronic state is 1-A.
 Alpha  occ. eigenvalues --  -19.53472 -19.51437 -19.49212  -7.03370  -1.33230
 Alpha  occ. eigenvalues --   -1.01874  -1.00294  -0.87625  -0.71549  -0.71352
 Alpha  occ. eigenvalues --   -0.70904  -0.48339  -0.43870  -0.38365  -0.37386
 Alpha  occ. eigenvalues --   -0.36196  -0.29895  -0.27474  -0.24383  -0.23324
 Alpha virt. eigenvalues --   -0.00627   0.04364   0.04497   0.04748   0.06373
 Alpha virt. eigenvalues --    0.06783   0.07277   0.07906   0.09284   0.11306
 Alpha virt. eigenvalues --    0.14671   0.15258   0.15567   0.16646   0.17501
 Alpha virt. eigenvalues --    0.19730   0.20654   0.28595   0.33137   0.38560
 Alpha virt. eigenvalues --    0.43069   0.46010   0.57034   0.78630   0.89632
 Alpha virt. eigenvalues --    1.02588   1.03993   1.08420   1.10877   1.11829
 Alpha virt. eigenvalues --    1.13555   1.16425   1.17966   1.20203   1.26831
 Alpha virt. eigenvalues --    1.27077   1.31916   1.35620   1.46964   1.47536
 Alpha virt. eigenvalues --    1.52959   1.57497   1.61308   1.65355   1.76436
 Alpha virt. eigenvalues --    1.91202   2.06918   2.73198   2.79635   2.81651
 Alpha virt. eigenvalues --    2.82371   2.86499   2.90103   2.95482   3.02537
 Alpha virt. eigenvalues --    3.07697   3.24585   3.25359   3.29897   3.33138
 Alpha virt. eigenvalues --    3.51641   3.65069   4.05775  83.09748
          Condensed to atoms (all electrons):
               1          2          3          4          5          6
     1  O    7.961283   0.286948  -0.049066   0.006676  -0.018294   0.339472
     2  B    0.286948   3.785408   0.426517  -0.088005   0.523024  -0.041720
     3  O   -0.049066   0.426517   8.263024   0.142641  -0.038312   0.004905
     4  Ba   0.006676  -0.088005   0.142641   8.262704   0.120512  -0.004943
     5  O   -0.018294   0.523024  -0.038312   0.120512   7.891410   0.000952
     6  H    0.339472  -0.041720   0.004905  -0.004943   0.000952   0.613560
 Mulliken charges:
               1
     1  O   -0.527018
     2  B    0.107828
     3  O   -0.749709
     4  Ba   1.560415
     5  O   -0.479291
     6  H    0.087774
 Sum of Mulliken charges =  -0.00000
 Mulliken charges with hydrogens summed into heavy atoms:
               1
     1  O   -0.439244
     2  B    0.107828
     3  O   -0.749709
     4  Ba   1.560415
     5  O   -0.479291
 Electronic spatial extent (au):  <R**2>=            834.9095
 Charge=             -0.0000 electrons
 Dipole moment (field-independent basis, Debye):
    X=            -24.1424    Y=             -1.3173    Z=              2.6877  Tot=             24.3273
 Quadrupole moment (field-independent basis, Debye-Ang):
   XX=            -64.8111   YY=            -55.6795   ZZ=            -39.5599
   XY=             -1.2676   XZ=              6.5726   YZ=              0.4478
 Traceless Quadrupole moment (field-independent basis, Debye-Ang):
   XX=            -11.4609   YY=             -2.3293   ZZ=             13.7903
   XY=             -1.2676   XZ=              6.5726   YZ=              0.4478
 Octapole moment (field-independent basis, Debye-Ang**2):
  XXX=           -212.2677  YYY=             -5.3162  ZZZ=              2.7435  XYY=            -52.6111
  XXY=              4.1092  XXZ=             22.1989  XZZ=            -29.5298  YZZ=             -0.8631
  YYZ=              1.9991  XYZ=              1.7855
 Hexadecapole moment (field-independent basis, Debye-Ang**3):
 XXXX=          -1245.0067 YYYY=           -200.1825 ZZZZ=            -49.2831 XXXY=             32.6048
 XXXZ=             78.5077 YYYX=             -8.7234 YYYZ=              0.4205 ZZZX=              3.6777
 ZZZY=              0.6302 XXYY=           -209.3851 XXZZ=           -144.8539 YYZZ=            -38.9694
 XXYZ=              6.4823 YYXZ=              2.2222 ZZXY=             -0.6376
 N-N= 1.416345335229D+02 E-N=-9.294019971322D+02  KE= 2.563332034717D+02
 PrsmSu:  requested number of processors reduced to:  22 ShMem   1 Linda.
   1 Symmetry operations used in ECPInt.
 ECPInt:  NShTT=     666 NPrTT=    2555 LenC2=     664 LenP2D=    2244.
 LDataN:  DoStor=T MaxTD1= 7 Len=  274
 Number of processors reduced to  25 by ecpmxn.
 D1PCM: PCM CHGder 1st derivatives, ID1Alg=3 FixD1E=F DoIter=F DoCFld=F I1PDM=0.
 CoulSu:  requested number of processors reduced to:  29 ShMem   1 Linda.
 CoulSu:  requested number of processors reduced to:  30 ShMem   1 Linda.
 Calling FoFJK, ICntrl=      2127 FMM=F ISym2X=0 I1Cent= 0 IOpClX= 0 NMat=1 NMatS=1 NMatT=0.
 Defaulting to unpruned grid for atomic number  56.
 Defaulting to unpruned grid for atomic number  56.
 Defaulting to unpruned grid for atomic number  56.
 Defaulting to unpruned grid for atomic number  56.
 Defaulting to unpruned grid for atomic number  56.
 Defaulting to unpruned grid for atomic number  56.
 Defaulting to unpruned grid for atomic number  56.
 Defaulting to unpruned grid for atomic number  56.
 Defaulting to unpruned grid for atomic number  56.
 Defaulting to unpruned grid for atomic number  56.
 Defaulting to unpruned grid for atomic number  56.
 Defaulting to unpruned grid for atomic number  56.
 Defaulting to unpruned grid for atomic number  56.
 Defaulting to unpruned grid for atomic number  56.
 Defaulting to unpruned grid for atomic number  56.
 Defaulting to unpruned grid for atomic number  56.
 Defaulting to unpruned grid for atomic number  56.
 Defaulting to unpruned grid for atomic number  56.
 Defaulting to unpruned grid for atomic number  56.
 Defaulting to unpruned grid for atomic number  56.
 Defaulting to unpruned grid for atomic number  56.
 Defaulting to unpruned grid for atomic number  56.
 Defaulting to unpruned grid for atomic number  56.
 Defaulting to unpruned grid for atomic number  56.
 Defaulting to unpruned grid for atomic number  56.
 Defaulting to unpruned grid for atomic number  56.
 Defaulting to unpruned grid for atomic number  56.
 Defaulting to unpruned grid for atomic number  56.
 Defaulting to unpruned grid for atomic number  56.
 Defaulting to unpruned grid for atomic number  56.
 Defaulting to unpruned grid for atomic number  56.
 Defaulting to unpruned grid for atomic number  56.
 Defaulting to unpruned grid for atomic number  56.
 Defaulting to unpruned grid for atomic number  56.
 Defaulting to unpruned grid for atomic number  56.
 Defaulting to unpruned grid for atomic number  56.
 Defaulting to unpruned grid for atomic number  56.
 Defaulting to unpruned grid for atomic number  56.
 Defaulting to unpruned grid for atomic number  56.
 Defaulting to unpruned grid for atomic number  56.
 Defaulting to unpruned grid for atomic number  56.
 Defaulting to unpruned grid for atomic number  56.
 Defaulting to unpruned grid for atomic number  56.
 Defaulting to unpruned grid for atomic number  56.
 Defaulting to unpruned grid for atomic number  56.
 Defaulting to unpruned grid for atomic number  56.
 Defaulting to unpruned grid for atomic number  56.
 Defaulting to unpruned grid for atomic number  56.
 Defaulting to unpruned grid for atomic number  56.
 ***** Axes restored to original set *****
 -------------------------------------------------------------------
 Center     Atomic                   Forces (Hartrees/Bohr)
 Number     Number              X              Y              Z
 -------------------------------------------------------------------
      1        8          -0.167615501    0.053173371   -0.198222530
      2        5           0.187523105    0.026680782   -0.045920924
      3        8          -0.088045785   -0.045296785    0.027301117
      4       56           0.013291947    0.002236871   -0.002335981
      5        8          -0.063701611   -0.015300433    0.006205906
      6        1           0.118547844   -0.021493806    0.212972412
 -------------------------------------------------------------------
 Cartesian Forces:  Max     0.212972412 RMS     0.100868376

 GradGradGradGradGradGradGradGradGradGradGradGradGradGradGradGradGradGrad
 Berny optimization.
 FormGI is forming the generalized inverse of G from B-inverse, IUseBI=4.
 Internal  Forces:  Max     0.244531438 RMS     0.068517626
 Search for a local minimum.
 Step number   1 out of a maximum of   10
 All quantities printed in internal units (Hartrees-Bohrs-Radians)
 Mixed Optimization -- RFO/linear search
 Second derivative matrix not updated -- first step.
 The second derivative matrix:
                          R1        R2        R3        R4        R5
           R1           0.14753
           R2           0.00000   1.00324
           R3           0.00000   0.00000   0.29546
           R4           0.00000   0.00000   0.00000   0.03066
           R5           0.00000   0.00000   0.00000   0.00000   0.84121
           R6           0.00000   0.00000   0.00000   0.00000   0.00000
           R7           0.00000   0.00000   0.00000   0.00000   0.00000
           A1           0.00000   0.00000   0.00000   0.00000   0.00000
           A2           0.00000   0.00000   0.00000   0.00000   0.00000
           A3           0.00000   0.00000   0.00000   0.00000   0.00000
           A4           0.00000   0.00000   0.00000   0.00000   0.00000
           A5           0.00000   0.00000   0.00000   0.00000   0.00000
           A6           0.00000   0.00000   0.00000   0.00000   0.00000
           A7           0.00000   0.00000   0.00000   0.00000   0.00000
           D1           0.00000   0.00000   0.00000   0.00000   0.00000
           D2           0.00000   0.00000   0.00000   0.00000   0.00000
           D3           0.00000   0.00000   0.00000   0.00000   0.00000
                          R6        R7        A1        A2        A3
           R6           0.03240
           R7           0.00000   0.05883
           A1           0.00000   0.00000   0.16000
           A2           0.00000   0.00000   0.00000   0.25000
           A3           0.00000   0.00000   0.00000   0.00000   0.25000
           A4           0.00000   0.00000   0.00000   0.00000   0.00000
           A5           0.00000   0.00000   0.00000   0.00000   0.00000
           A6           0.00000   0.00000   0.00000   0.00000   0.00000
           A7           0.00000   0.00000   0.00000   0.00000   0.00000
           D1           0.00000   0.00000   0.00000   0.00000   0.00000
           D2           0.00000   0.00000   0.00000   0.00000   0.00000
           D3           0.00000   0.00000   0.00000   0.00000   0.00000
                          A4        A5        A6        A7        D1
           A4           0.25000
           A5           0.00000   0.25000
           A6           0.00000   0.00000   0.00230
           A7           0.00000   0.00000   0.00000   0.00230
           D1           0.00000   0.00000   0.00000   0.00000   0.00230
           D2           0.00000   0.00000   0.00000   0.00000   0.00000
           D3           0.00000   0.00000   0.00000   0.00000   0.00000
                          D2        D3
           D2           0.00230
           D3           0.00000   0.00230
 ITU=  0
     Eigenvalues ---    0.00230   0.00554   0.02613   0.03369   0.05077
     Eigenvalues ---    0.14753   0.15239   0.16000   0.17127   0.29334
     Eigenvalues ---    0.81599   1.00324
 RFO step:  Lambda=-1.18553080D-01 EMin= 2.30000000D-03
 Linear search not attempted -- first point.
 Maximum step size (   0.300) exceeded in Quadratic search.
    -- Step size scaled by   0.656
 Iteration  1 RMS(Cart)=  0.08035650 RMS(Int)=  0.01102147
 Iteration  2 RMS(Cart)=  0.00759661 RMS(Int)=  0.00777825
 Iteration  3 RMS(Cart)=  0.00002467 RMS(Int)=  0.00777821
 Iteration  4 RMS(Cart)=  0.00000081 RMS(Int)=  0.00777821
 Variable       Old X    -DE/DX   Delta X   Delta X   Delta X     New X
                                 (Linear)    (Quad)   (Total)
    R1        3.35863  -0.05562   0.00000  -0.13715  -0.13715   3.22148
    R2        1.55209   0.24453   0.00000   0.14302   0.14302   1.69511
    R3        2.88878  -0.08857   0.00000  -0.14232  -0.14214   2.74664
    R4        5.55744   0.01670   0.00000   0.05647   0.04590   5.60334
    R5        2.35767   0.06219   0.00000   0.04244   0.04440   2.40207
    R6        5.48736  -0.02903   0.00000  -0.10625  -0.10057   5.38680
    R7        4.80795   0.00359   0.00000   0.01333   0.01818   4.82613
    A1        1.83166  -0.00275   0.00000  -0.00647  -0.00647   1.82519
    A2        1.75498   0.03010   0.00000   0.09485   0.08741   1.84239
    A3        2.17991  -0.01199   0.00000  -0.00378  -0.01590   2.16402
    A4        2.25032   0.01005   0.00000   0.03856   0.01498   2.26530
    A5        0.94835  -0.00010   0.00000   0.00108  -0.00560   0.94275
    A6        3.03780   0.02215   0.00000   0.05171   0.04711   3.08492
    A7        3.08725   0.00266   0.00000   0.01637   0.01763   3.10488
    D1        1.32260  -0.03400   0.00000  -0.15504  -0.15555   1.16705
    D2       -2.24804   0.02840   0.00000   0.12463   0.12513  -2.12291
    D3        0.18374  -0.02131   0.00000  -0.11990  -0.12549   0.05825
         Item               Value     Threshold  Converged?
 Maximum Force            0.244531     0.000450     NO 
 RMS     Force            0.068518     0.000300     NO 
 Maximum Displacement     0.151769     0.001800     NO 
 RMS     Displacement     0.081884     0.001200     NO 
 Predicted change in Energy=-6.054496D-02
 GradGradGradGradGradGradGradGradGradGradGradGradGradGradGradGradGradGrad

                          Input orientation:                          
 ---------------------------------------------------------------------
 Center     Atomic      Atomic             Coordinates (Angstroms)
 Number     Number       Type             X           Y           Z
 ---------------------------------------------------------------------
      1          8           0        7.116936   -1.291753   13.150032
      2          5           0        6.179051    0.121618   13.319967
      3          8           0        7.131582    1.218488   13.365801
      4         56           0        4.686512    2.676447   13.513233
      5          8           0        4.911356    0.148236   13.230595
      6          1           0        7.566084   -1.358996   13.923581
 ---------------------------------------------------------------------
                    Distance matrix (angstroms):
                    1          2          3          4          5
     1  O    0.000000
     2  B    1.704735   0.000000
     3  O    2.519540   1.453458   0.000000
     4  Ba   4.667492   2.965161   2.850569   0.000000
     5  O    2.635269   1.271121   2.468425   2.553877   0.000000
     6  H    0.897014   2.116702   2.672702   4.974447   3.130425
                    6
     6  H    0.000000
 Stoichiometry    BBaHO3
 Framework group  C1[X(BBaHO3)]
 Deg. of freedom    12
 Full point group                 C1      NOp   1
 Largest Abelian subgroup         C1      NOp   1
 Largest concise Abelian subgroup C1      NOp   1
                         Standard orientation:                         
 ---------------------------------------------------------------------
 Center     Atomic      Atomic             Coordinates (Angstroms)
 Number     Number       Type             X           Y           Z
 ---------------------------------------------------------------------
      1          8           0        3.554370   -0.110526   -0.044776
      2          5           0        1.850786   -0.125490    0.016047
      3          8           0        1.445493    1.267999   -0.064369
      4         56           0       -1.111281    0.009635    0.007545
      5          8           0        1.146853   -1.182208   -0.043725
      6          1           0        3.804099    0.285785    0.720212
 ---------------------------------------------------------------------
 Rotational constants (GHZ):          10.2778552           1.0638931           0.9664614
 Standard basis: def2SVP (5D, 7F)
 There are    90 symmetry adapted cartesian basis functions of A   symmetry.
 There are    84 symmetry adapted basis functions of A   symmetry.
    84 basis functions,   161 primitive gaussians,    90 cartesian basis functions
    20 alpha electrons       20 beta electrons
       nuclear repulsion energy       143.0362400079 Hartrees.
 NAtoms=    6 NActive=    6 NUniq=    6 SFac= 1.00D+00 NAtFMM=   60 NAOKFM=F Big=F
 Integral buffers will be    131072 words long.
 Raffenetti 2 integral format.
 Two-electron integral symmetry is turned on.
 ------------------------------------------------------------------------------
 Polarizable Continuum Model (PCM)
 =================================
 Model                : PCM.
 Atomic radii         : UFF (Universal Force Field).
 Polarization charges : Total charges.
 Charge compensation  : None.
 Solution method      : On-the-fly selection.
 Cavity type          : Scaled VdW (van der Waals Surface) (Alpha=1.100).
 Cavity algorithm     : GePol (No added spheres)
                        Default sphere list used, NSphG=    6.
                        Lebedev-Laikov grids with approx.  5.0 points / Ang**2.
                        Smoothing algorithm: York/Karplus (Gamma=1.0000).
                        Polarization charges: spherical gaussians, with
                                              point-specific exponents (IZeta= 3).
                        Self-potential: point-specific (ISelfS= 7).
                        Self-field    : sphere-specific E.n sum rule (ISelfD= 2).
 1st derivatives      : Analytical E(r).r(x)/FMM algorithm (CHGder, D1EAlg=3).
                        Cavity 1st derivative terms included.
 Solvent              : Water, Eps=  78.355300 Eps(inf)=   1.777849
 ------------------------------------------------------------------------------
 Spheres list:
 ISph  on   Nord     Re0    Alpha      Xe            Ye            Ze
    1   O      1    1.7500  1.100      3.554370     -0.110526     -0.044776
    2   B      2    2.0415  1.100      1.850786     -0.125490      0.016047
    3   O      3    1.7500  1.100      1.445493      1.267999     -0.064369
    4  Ba      4    1.8515  1.100     -1.111281      0.009635      0.007545
    5   O      5    1.7500  1.100      1.146853     -1.182208     -0.043725
    6   H      6    1.4430  1.100      3.804099      0.285785      0.720212
 ------------------------------------------------------------------------------
 One-electron integrals computed using PRISM.
 PrsmSu:  requested number of processors reduced to:  30 ShMem   1 Linda.
   1 Symmetry operations used in ECPInt.
 ECPInt:  NShTT=     666 NPrTT=    2555 LenC2=     664 LenP2D=    2253.
 LDataN:  DoStor=T MaxTD1= 6 Len=  172
 Number of processors reduced to  27 by ecpmxn.
 NBasis=    84 RedAO= T EigKep=  1.30D-02  NBF=    84
 NBsUse=    84 1.00D-06 EigRej= -1.00D+00 NBFU=    84
 Defaulting to unpruned grid for atomic number  56.
 Initial guess from the checkpoint file:  "/home/zz1/proj/gauss/new/chk/Ba-KAJFOU-51/123.chk"
 B after Tr=    -0.000000    0.000000    0.000000
         Rot=    0.999991    0.003698   -0.000058   -0.002192 Ang=   0.49 deg.
 ExpMin= 1.81D-02 ExpMax= 2.27D+03 ExpMxC= 3.41D+02 IAcc=3 IRadAn=         5 AccDes= 0.00D+00
 Harris functional with IExCor= 1009 and IRadAn=       5 diagonalized for initial guess.
 HarFok:  IExCor= 1009 AccDes= 0.00D+00 IRadAn=         5 IDoV= 1 UseB2=F ITyADJ=14
 ICtDFT=  3500011 ScaDFX=  1.000000  1.000000  1.000000  1.000000
 Defaulting to unpruned grid for atomic number  56.
 FoFCou: FMM=F IPFlag=           0 FMFlag=      100000 FMFlg1=           0
         NFxFlg=           0 DoJE=T BraDBF=F KetDBF=T FulRan=T
         wScrn=  0.000000 ICntrl=       500 IOpCl=  0 I1Cent=   200000004 NGrid=           0
         NMat0=    1 NMatS0=      1 NMatT0=    0 NMatD0=    1 NMtDS0=    0 NMtDT0=    0
 Petite list used in FoFCou.
 Keep R1 ints in memory in canonical form, NReq=51145628.
 Requested convergence on RMS density matrix=1.00D-08 within 128 cycles.
 Requested convergence on MAX density matrix=1.00D-06.
 Requested convergence on             energy=1.00D-06.
 No special actions if energy rises.
 Defaulting to unpruned grid for atomic number  56.
 Defaulting to unpruned grid for atomic number  56.
 Defaulting to unpruned grid for atomic number  56.
 Defaulting to unpruned grid for atomic number  56.
 Defaulting to unpruned grid for atomic number  56.
 Defaulting to unpruned grid for atomic number  56.
 Defaulting to unpruned grid for atomic number  56.
 Defaulting to unpruned grid for atomic number  56.
 Defaulting to unpruned grid for atomic number  56.
 Defaulting to unpruned grid for atomic number  56.
 Defaulting to unpruned grid for atomic number  56.
 Defaulting to unpruned grid for atomic number  56.
 Defaulting to unpruned grid for atomic number  56.
 Defaulting to unpruned grid for atomic number  56.
 Defaulting to unpruned grid for atomic number  56.
 Defaulting to unpruned grid for atomic number  56.
 Defaulting to unpruned grid for atomic number  56.
 Defaulting to unpruned grid for atomic number  56.
 Defaulting to unpruned grid for atomic number  56.
 Defaulting to unpruned grid for atomic number  56.
 Defaulting to unpruned grid for atomic number  56.
 Defaulting to unpruned grid for atomic number  56.
 Defaulting to unpruned grid for atomic number  56.
 Defaulting to unpruned grid for atomic number  56.
 Defaulting to unpruned grid for atomic number  56.
 Defaulting to unpruned grid for atomic number  56.
 Defaulting to unpruned grid for atomic number  56.
 Defaulting to unpruned grid for atomic number  56.
 Defaulting to unpruned grid for atomic number  56.
 Defaulting to unpruned grid for atomic number  56.
 Defaulting to unpruned grid for atomic number  56.
 Defaulting to unpruned grid for atomic number  56.
 Defaulting to unpruned grid for atomic number  56.
 Defaulting to unpruned grid for atomic number  56.
 Defaulting to unpruned grid for atomic number  56.
 Defaulting to unpruned grid for atomic number  56.
 Defaulting to unpruned grid for atomic number  56.
 Defaulting to unpruned grid for atomic number  56.
 Defaulting to unpruned grid for atomic number  56.
 Defaulting to unpruned grid for atomic number  56.
 Defaulting to unpruned grid for atomic number  56.
 Defaulting to unpruned grid for atomic number  56.
 Defaulting to unpruned grid for atomic number  56.
 Defaulting to unpruned grid for atomic number  56.
 Defaulting to unpruned grid for atomic number  56.
 Defaulting to unpruned grid for atomic number  56.
 Defaulting to unpruned grid for atomic number  56.
 Defaulting to unpruned grid for atomic number  56.
 Defaulting to unpruned grid for atomic number  56.
 CoulSu:  requested number of processors reduced to:  46 ShMem   1 Linda.
 Inv3:  Mode=1 IEnd=     2600283.
 Iteration    1 A*A^-1 deviation from unit magnitude is 3.33D-15 for    186.
 Iteration    1 A*A^-1 deviation from orthogonality  is 1.73D-15 for    365     64.
 Iteration    1 A^-1*A deviation from unit magnitude is 3.55D-15 for    186.
 Iteration    1 A^-1*A deviation from orthogonality  is 1.55D-15 for    836    449.
 CoulSu:  requested number of processors reduced to:  46 ShMem   1 Linda.
 CoulSu:  requested number of processors reduced to:  46 ShMem   1 Linda.
 CoulSu:  requested number of processors reduced to:  47 ShMem   1 Linda.
 CoulSu:  requested number of processors reduced to:  44 ShMem   1 Linda.
 Error on total polarization charges =  0.01895
 SCF Done:  E(RM062X) =  -276.504952932     A.U. after   12 cycles
            NFock= 12  Conv=0.42D-08     -V/T= 2.0793

 **********************************************************************

            Population analysis using the SCF density.

 **********************************************************************

 Orbital symmetries:
       Occupied  (A) (A) (A) (A) (A) (A) (A) (A) (A) (A) (A) (A)
                 (A) (A) (A) (A) (A) (A) (A) (A)
       Virtual   (A) (A) (A) (A) (A) (A) (A) (A) (A) (A) (A) (A)
                 (A) (A) (A) (A) (A) (A) (A) (A) (A) (A) (A) (A)
                 (A) (A) (A) (A) (A) (A) (A) (A) (A) (A) (A) (A)
                 (A) (A) (A) (A) (A) (A) (A) (A) (A) (A) (A) (A)
                 (A) (A) (A) (A) (A) (A) (A) (A) (A) (A) (A) (A)
                 (A) (A) (A) (A)
 The electronic state is 1-A.
 Alpha  occ. eigenvalues --  -19.52681 -19.52167 -19.49067  -7.01929  -1.32956
 Alpha  occ. eigenvalues --   -1.00456  -0.98301  -0.89233  -0.71312  -0.71075
 Alpha  occ. eigenvalues --   -0.70564  -0.48183  -0.42732  -0.38402  -0.37707
 Alpha  occ. eigenvalues --   -0.35175  -0.30061  -0.27673  -0.25023  -0.23948
 Alpha virt. eigenvalues --   -0.00569   0.04405   0.04593   0.04876   0.06436
 Alpha virt. eigenvalues --    0.06906   0.07431   0.07887   0.09345   0.11814
 Alpha virt. eigenvalues --    0.15029   0.15451   0.15695   0.17902   0.18817
 Alpha virt. eigenvalues --    0.19844   0.20190   0.28780   0.33549   0.40050
 Alpha virt. eigenvalues --    0.43750   0.46402   0.61965   0.77054   0.81454
 Alpha virt. eigenvalues --    1.03867   1.05319   1.09365   1.10863   1.12496
 Alpha virt. eigenvalues --    1.13494   1.16193   1.18195   1.21875   1.26402
 Alpha virt. eigenvalues --    1.26950   1.31828   1.35639   1.45903   1.49204
 Alpha virt. eigenvalues --    1.51321   1.56753   1.57863   1.70079   1.78534
 Alpha virt. eigenvalues --    1.89006   2.09647   2.52682   2.79517   2.81509
 Alpha virt. eigenvalues --    2.82959   2.85601   2.91120   3.01000   3.02479
 Alpha virt. eigenvalues --    3.15535   3.19192   3.24449   3.26720   3.34644
 Alpha virt. eigenvalues --    3.55125   3.65771   3.92959  83.10074
          Condensed to atoms (all electrons):
               1          2          3          4          5          6
     1  O    7.977003   0.311487  -0.051085   0.004297  -0.023677   0.321988
     2  B    0.311487   3.724470   0.463960  -0.079857   0.514725  -0.041790
     3  O   -0.051085   0.463960   8.195691   0.143847  -0.040953   0.003835
     4  Ba   0.004297  -0.079857   0.143847   8.255195   0.128008  -0.004973
     5  O   -0.023677   0.514725  -0.040953   0.128008   7.952633   0.000695
     6  H    0.321988  -0.041790   0.003835  -0.004973   0.000695   0.593993
 Mulliken charges:
               1
     1  O   -0.540013
     2  B    0.107004
     3  O   -0.715296
     4  Ba   1.553484
     5  O   -0.531431
     6  H    0.126252
 Sum of Mulliken charges =  -0.00000
 Mulliken charges with hydrogens summed into heavy atoms:
               1
     1  O   -0.413761
     2  B    0.107004
     3  O   -0.715296
     4  Ba   1.553484
     5  O   -0.531431
 Electronic spatial extent (au):  <R**2>=            821.2715
 Charge=             -0.0000 electrons
 Dipole moment (field-independent basis, Debye):
    X=            -23.5216    Y=             -0.6163    Z=              1.9124  Tot=             23.6073
 Quadrupole moment (field-independent basis, Debye-Ang):
   XX=            -62.6987   YY=            -55.5220   ZZ=            -39.5070
   XY=              0.0699   XZ=              5.9879   YZ=              0.6602
 Traceless Quadrupole moment (field-independent basis, Debye-Ang):
   XX=            -10.1228   YY=             -2.9461   ZZ=             13.0689
   XY=              0.0699   XZ=              5.9879   YZ=              0.6602
 Octapole moment (field-independent basis, Debye-Ang**2):
  XXX=           -202.5809  YYY=             -3.2638  ZZZ=              1.9378  XYY=            -52.1174
  XXY=              6.8518  XXZ=             22.1869  XZZ=            -29.6003  YZZ=             -0.4158
  YYZ=              1.0381  XYZ=              2.1590
 Hexadecapole moment (field-independent basis, Debye-Ang**3):
 XXXX=          -1204.2827 YYYY=           -195.6189 ZZZZ=            -47.3668 XXXY=             39.4219
 XXXZ=             83.2596 YYYX=             -5.9141 YYYZ=              0.5921 ZZZX=              4.3243
 ZZZY=              0.6913 XXYY=           -206.0958 XXZZ=           -144.3339 YYZZ=            -37.9226
 XXYZ=              7.5253 YYXZ=              1.6658 ZZXY=             -0.0086
 N-N= 1.430362400079D+02 E-N=-9.323020886699D+02  KE= 2.561971258606D+02
 PrsmSu:  requested number of processors reduced to:  22 ShMem   1 Linda.
   1 Symmetry operations used in ECPInt.
 ECPInt:  NShTT=     666 NPrTT=    2555 LenC2=     664 LenP2D=    2253.
 LDataN:  DoStor=T MaxTD1= 7 Len=  274
 Number of processors reduced to  25 by ecpmxn.
 D1PCM: PCM CHGder 1st derivatives, ID1Alg=3 FixD1E=F DoIter=F DoCFld=F I1PDM=0.
 CoulSu:  requested number of processors reduced to:  29 ShMem   1 Linda.
 CoulSu:  requested number of processors reduced to:  30 ShMem   1 Linda.
 Calling FoFJK, ICntrl=      2127 FMM=F ISym2X=0 I1Cent= 0 IOpClX= 0 NMat=1 NMatS=1 NMatT=0.
 Defaulting to unpruned grid for atomic number  56.
 Defaulting to unpruned grid for atomic number  56.
 Defaulting to unpruned grid for atomic number  56.
 Defaulting to unpruned grid for atomic number  56.
 Defaulting to unpruned grid for atomic number  56.
 Defaulting to unpruned grid for atomic number  56.
 Defaulting to unpruned grid for atomic number  56.
 Defaulting to unpruned grid for atomic number  56.
 Defaulting to unpruned grid for atomic number  56.
 Defaulting to unpruned grid for atomic number  56.
 Defaulting to unpruned grid for atomic number  56.
 Defaulting to unpruned grid for atomic number  56.
 Defaulting to unpruned grid for atomic number  56.
 Defaulting to unpruned grid for atomic number  56.
 Defaulting to unpruned grid for atomic number  56.
 Defaulting to unpruned grid for atomic number  56.
 Defaulting to unpruned grid for atomic number  56.
 Defaulting to unpruned grid for atomic number  56.
 Defaulting to unpruned grid for atomic number  56.
 Defaulting to unpruned grid for atomic number  56.
 Defaulting to unpruned grid for atomic number  56.
 Defaulting to unpruned grid for atomic number  56.
 Defaulting to unpruned grid for atomic number  56.
 Defaulting to unpruned grid for atomic number  56.
 Defaulting to unpruned grid for atomic number  56.
 Defaulting to unpruned grid for atomic number  56.
 Defaulting to unpruned grid for atomic number  56.
 Defaulting to unpruned grid for atomic number  56.
 Defaulting to unpruned grid for atomic number  56.
 Defaulting to unpruned grid for atomic number  56.
 Defaulting to unpruned grid for atomic number  56.
 Defaulting to unpruned grid for atomic number  56.
 Defaulting to unpruned grid for atomic number  56.
 Defaulting to unpruned grid for atomic number  56.
 Defaulting to unpruned grid for atomic number  56.
 Defaulting to unpruned grid for atomic number  56.
 Defaulting to unpruned grid for atomic number  56.
 Defaulting to unpruned grid for atomic number  56.
 Defaulting to unpruned grid for atomic number  56.
 Defaulting to unpruned grid for atomic number  56.
 Defaulting to unpruned grid for atomic number  56.
 Defaulting to unpruned grid for atomic number  56.
 Defaulting to unpruned grid for atomic number  56.
 Defaulting to unpruned grid for atomic number  56.
 Defaulting to unpruned grid for atomic number  56.
 Defaulting to unpruned grid for atomic number  56.
 Defaulting to unpruned grid for atomic number  56.
 Defaulting to unpruned grid for atomic number  56.
 Defaulting to unpruned grid for atomic number  56.
 ***** Axes restored to original set *****
 -------------------------------------------------------------------
 Center     Atomic                   Forces (Hartrees/Bohr)
 Number     Number              X              Y              Z
 -------------------------------------------------------------------
      1        8          -0.087999085    0.035654015   -0.066201443
      2        5           0.143308267    0.016758605   -0.014941578
      3        8          -0.068110796   -0.035617152    0.007345740
      4       56           0.013185186   -0.002848370   -0.000950646
      5        8          -0.044636715   -0.011809488    0.001778797
      6        1           0.044253143   -0.002137610    0.072969130
 -------------------------------------------------------------------
 Cartesian Forces:  Max     0.143308267 RMS     0.052707788

 GradGradGradGradGradGradGradGradGradGradGradGradGradGradGradGradGradGrad
 Berny optimization.
 Using GEDIIS/GDIIS optimizer.
 FormGI is forming the generalized inverse of G from B-inverse, IUseBI=4.
 Internal  Forces:  Max     0.085238088 RMS     0.032963642
 Search for a local minimum.
 Step number   2 out of a maximum of   10
 All quantities printed in internal units (Hartrees-Bohrs-Radians)
 Mixed Optimization -- RFO/linear search
 Update second derivatives using D2CorX and points    1    2
 DE= -5.86D-02 DEPred=-6.05D-02 R= 9.67D-01
 TightC=F SS=  1.41D+00  RLast= 3.75D-01 DXNew= 5.0454D-01 1.1237D+00
 Trust test= 9.67D-01 RLast= 3.75D-01 DXMaxT set to 5.05D-01
 The second derivative matrix:
                          R1        R2        R3        R4        R5
           R1           0.13558
           R2           0.07305   1.08586
           R3          -0.02353   0.08595   0.25547
           R4          -0.00018   0.04706  -0.00539   0.03465
           R5           0.02111  -0.08625   0.03688   0.00404   0.80737
           R6          -0.00133  -0.01868   0.00031  -0.00235   0.00018
           R7           0.00078  -0.01151   0.00227  -0.00057  -0.00192
           A1          -0.00078   0.01233  -0.00236   0.00065   0.00199
           A2           0.01240  -0.05270   0.02188   0.00219  -0.02004
           A3          -0.00281   0.03804  -0.00781   0.00177   0.00665
           A4           0.00137   0.02956  -0.00145   0.00332   0.00064
           A5          -0.00106   0.01684  -0.00321   0.00089   0.00271
           A6          -0.00049   0.02804  -0.00370   0.00217   0.00289
           A7          -0.00012   0.00705  -0.00092   0.00055   0.00072
           D1           0.00141  -0.08205   0.01081  -0.00635  -0.00844
           D2          -0.00151   0.08501  -0.01125   0.00656   0.00879
           D3           0.00083  -0.05042   0.00659  -0.00392  -0.00514
                          R6        R7        A1        A2        A3
           R6           0.03361
           R7           0.00043   0.05887
           A1          -0.00047  -0.00005   0.16006
           A2           0.00021  -0.00110   0.00114   0.23815
           A3          -0.00137  -0.00008   0.00012   0.00382   0.25016
           A4          -0.00177  -0.00057   0.00063   0.00023   0.00182
           A5          -0.00064  -0.00006   0.00008   0.00155   0.00016
           A6          -0.00132  -0.00029   0.00033   0.00160   0.00087
           A7          -0.00033  -0.00007   0.00008   0.00040   0.00022
           D1           0.00388   0.00084  -0.00096  -0.00467  -0.00256
           D2          -0.00401  -0.00087   0.00099   0.00487   0.00264
           D3           0.00239   0.00052  -0.00059  -0.00284  -0.00159
                          A4        A5        A6        A7        D1
           A4           0.25256
           A5           0.00087   0.25011
           A6           0.00185   0.00045   0.00347
           A7           0.00047   0.00011   0.00030   0.00237
           D1          -0.00543  -0.00132  -0.00342  -0.00087   0.01232
           D2           0.00561   0.00135   0.00353   0.00089  -0.01034
           D3          -0.00335  -0.00082  -0.00211  -0.00053   0.00619
                          D2        D3
           D2           0.01297
           D3          -0.00639   0.00613
 ITU=  1  0
 Use linear search instead of GDIIS.
     Eigenvalues ---    0.00230   0.00263   0.00940   0.03317   0.05083
     Eigenvalues ---    0.11875   0.15394   0.15996   0.16862   0.25905
     Eigenvalues ---    0.77224   1.13240
 RFO step:  Lambda=-4.77043239D-02 EMin= 2.29851339D-03
 Quartic linear search produced a step of  1.39429.
 Iteration  1 RMS(Cart)=  0.10983639 RMS(Int)=  0.10926909
 Iteration  2 RMS(Cart)=  0.08484400 RMS(Int)=  0.04141371
 Iteration  3 RMS(Cart)=  0.03927831 RMS(Int)=  0.02435643
 Iteration  4 RMS(Cart)=  0.00020231 RMS(Int)=  0.02435601
 Iteration  5 RMS(Cart)=  0.00002145 RMS(Int)=  0.02435600
 Iteration  6 RMS(Cart)=  0.00000206 RMS(Int)=  0.02435600
 Iteration  7 RMS(Cart)=  0.00000019 RMS(Int)=  0.02435600
 Variable       Old X    -DE/DX   Delta X   Delta X   Delta X     New X
                                 (Linear)    (Quad)   (Total)
    R1        3.22148  -0.05252  -0.19123  -0.33071  -0.52194   2.69954
    R2        1.69511   0.08524   0.19941  -0.06073   0.13868   1.83380
    R3        2.74664  -0.06712  -0.19818  -0.18547  -0.37888   2.36775
    R4        5.60334   0.00456   0.06400  -0.05645  -0.03437   5.56897
    R5        2.40207   0.04535   0.06191   0.04213   0.10884   2.51091
    R6        5.38680  -0.02157  -0.14022  -0.24263  -0.35863   5.02816
    R7        4.82613   0.00518   0.02535   0.05408   0.09736   4.92349
    A1        1.82519  -0.00455  -0.00902  -0.03683  -0.04584   1.77935
    A2        1.84239   0.02076   0.12188   0.09810   0.20686   2.04926
    A3        2.16402  -0.01679  -0.02216  -0.08901  -0.13693   2.02709
    A4        2.26530  -0.00037   0.02089  -0.01882  -0.06927   2.19603
    A5        0.94275  -0.00258  -0.00780  -0.00882  -0.03955   0.90320
    A6        3.08492   0.01564   0.06569   0.03863   0.09075   3.17567
    A7        3.10488   0.00101   0.02459  -0.02282   0.01325   3.11813
    D1        1.16705  -0.01490  -0.21688  -0.06076  -0.26096   0.90609
    D2       -2.12291   0.00869   0.17447  -0.12224   0.03556  -2.08735
    D3        0.05825  -0.00950  -0.17497   0.02553  -0.15662  -0.09837
         Item               Value     Threshold  Converged?
 Maximum Force            0.085238     0.000450     NO 
 RMS     Force            0.032964     0.000300     NO 
 Maximum Displacement     0.331676     0.001800     NO 
 RMS     Displacement     0.193510     0.001200     NO 
 Predicted change in Energy=-4.571088D-02
 GradGradGradGradGradGradGradGradGradGradGradGradGradGradGradGradGradGrad

                          Input orientation:                          
 ---------------------------------------------------------------------
 Center     Atomic      Atomic             Coordinates (Angstroms)
 Number     Number       Type             X           Y           Z
 ---------------------------------------------------------------------
      1          8           0        6.974517   -1.161083   13.108332
      2          5           0        6.298338    0.089429   13.248760
      3          8           0        7.001014    1.104195   13.464191
      4         56           0        4.821745    2.630818   13.462467
      5          8           0        4.972248    0.034162   13.311363
      6          1           0        7.523659   -1.183481   13.908096
 ---------------------------------------------------------------------
                    Distance matrix (angstroms):
                    1          2          3          4          5
     1  O    0.000000
     2  B    1.428537   0.000000
     3  O    2.293212   1.252961   0.000000
     4  Ba   4.374740   2.946974   2.660788   0.000000
     5  O    2.340707   1.328717   2.298742   2.605399   0.000000
     6  H    0.970403   1.885851   2.388236   4.695509   2.889367
                    6
     6  H    0.000000
 Stoichiometry    BBaHO3
 Framework group  C1[X(BBaHO3)]
 Deg. of freedom    12
 Full point group                 C1      NOp   1
 Largest Abelian subgroup         C1      NOp   1
 Largest concise Abelian subgroup C1      NOp   1
                         Standard orientation:                         
 ---------------------------------------------------------------------
 Center     Atomic      Atomic             Coordinates (Angstroms)
 Number     Number       Type             X           Y           Z
 ---------------------------------------------------------------------
      1          8           0        3.300305   -0.058718   -0.117523
      2          5           0        1.873977   -0.005850   -0.058274
      3          8           0        1.341898    1.124860    0.032833
      4         56           0       -1.072477    0.007184   -0.004440
      5          8           0        1.249738   -1.171728    0.070344
      6          1           0        3.553272    0.471632    0.654758
 ---------------------------------------------------------------------
 Rotational constants (GHZ):          11.6855272           1.1633473           1.0614396
 Standard basis: def2SVP (5D, 7F)
 There are    90 symmetry adapted cartesian basis functions of A   symmetry.
 There are    84 symmetry adapted basis functions of A   symmetry.
    84 basis functions,   161 primitive gaussians,    90 cartesian basis functions
    20 alpha electrons       20 beta electrons
       nuclear repulsion energy       152.5564063891 Hartrees.
 NAtoms=    6 NActive=    6 NUniq=    6 SFac= 1.00D+00 NAtFMM=   60 NAOKFM=F Big=F
 Integral buffers will be    131072 words long.
 Raffenetti 2 integral format.
 Two-electron integral symmetry is turned on.
 ------------------------------------------------------------------------------
 Polarizable Continuum Model (PCM)
 =================================
 Model                : PCM.
 Atomic radii         : UFF (Universal Force Field).
 Polarization charges : Total charges.
 Charge compensation  : None.
 Solution method      : On-the-fly selection.
 Cavity type          : Scaled VdW (van der Waals Surface) (Alpha=1.100).
 Cavity algorithm     : GePol (No added spheres)
                        Default sphere list used, NSphG=    6.
                        Lebedev-Laikov grids with approx.  5.0 points / Ang**2.
                        Smoothing algorithm: York/Karplus (Gamma=1.0000).
                        Polarization charges: spherical gaussians, with
                                              point-specific exponents (IZeta= 3).
                        Self-potential: point-specific (ISelfS= 7).
                        Self-field    : sphere-specific E.n sum rule (ISelfD= 2).
 1st derivatives      : Analytical E(r).r(x)/FMM algorithm (CHGder, D1EAlg=3).
                        Cavity 1st derivative terms included.
 Solvent              : Water, Eps=  78.355300 Eps(inf)=   1.777849
 ------------------------------------------------------------------------------
 Spheres list:
 ISph  on   Nord     Re0    Alpha      Xe            Ye            Ze
    1   O      1    1.7500  1.100      3.300305     -0.058718     -0.117523
    2   B      2    2.0415  1.100      1.873977     -0.005850     -0.058274
    3   O      3    1.7500  1.100      1.341898      1.124860      0.032833
    4  Ba      4    1.8515  1.100     -1.072477      0.007184     -0.004440
    5   O      5    1.7500  1.100      1.249738     -1.171728      0.070344
    6   H      6    1.4430  1.100      3.553272      0.471632      0.654758
 ------------------------------------------------------------------------------
 One-electron integrals computed using PRISM.
 PrsmSu:  requested number of processors reduced to:  30 ShMem   1 Linda.
   1 Symmetry operations used in ECPInt.
 ECPInt:  NShTT=     666 NPrTT=    2555 LenC2=     664 LenP2D=    2283.
 LDataN:  DoStor=T MaxTD1= 6 Len=  172
 Number of processors reduced to  27 by ecpmxn.
 NBasis=    84 RedAO= T EigKep=  1.14D-02  NBF=    84
 NBsUse=    84 1.00D-06 EigRej= -1.00D+00 NBFU=    84
 Defaulting to unpruned grid for atomic number  56.
 Initial guess from the checkpoint file:  "/home/zz1/proj/gauss/new/chk/Ba-KAJFOU-51/123.chk"
 B after Tr=    -0.000000   -0.000000   -0.000000
         Rot=    0.999960    0.004360   -0.000083   -0.007767 Ang=   1.02 deg.
 ExpMin= 1.81D-02 ExpMax= 2.27D+03 ExpMxC= 3.41D+02 IAcc=3 IRadAn=         5 AccDes= 0.00D+00
 Harris functional with IExCor= 1009 and IRadAn=       5 diagonalized for initial guess.
 HarFok:  IExCor= 1009 AccDes= 0.00D+00 IRadAn=         5 IDoV= 1 UseB2=F ITyADJ=14
 ICtDFT=  3500011 ScaDFX=  1.000000  1.000000  1.000000  1.000000
 Defaulting to unpruned grid for atomic number  56.
 FoFCou: FMM=F IPFlag=           0 FMFlag=      100000 FMFlg1=           0
         NFxFlg=           0 DoJE=T BraDBF=F KetDBF=T FulRan=T
         wScrn=  0.000000 ICntrl=       500 IOpCl=  0 I1Cent=   200000004 NGrid=           0
         NMat0=    1 NMatS0=      1 NMatT0=    0 NMatD0=    1 NMtDS0=    0 NMtDT0=    0
 Petite list used in FoFCou.
 Keep R1 ints in memory in canonical form, NReq=51145628.
 Requested convergence on RMS density matrix=1.00D-08 within 128 cycles.
 Requested convergence on MAX density matrix=1.00D-06.
 Requested convergence on             energy=1.00D-06.
 No special actions if energy rises.
 Defaulting to unpruned grid for atomic number  56.
 Defaulting to unpruned grid for atomic number  56.
 Defaulting to unpruned grid for atomic number  56.
 Defaulting to unpruned grid for atomic number  56.
 Defaulting to unpruned grid for atomic number  56.
 Defaulting to unpruned grid for atomic number  56.
 Defaulting to unpruned grid for atomic number  56.
 Defaulting to unpruned grid for atomic number  56.
 Defaulting to unpruned grid for atomic number  56.
 Defaulting to unpruned grid for atomic number  56.
 Defaulting to unpruned grid for atomic number  56.
 Defaulting to unpruned grid for atomic number  56.
 Defaulting to unpruned grid for atomic number  56.
 Defaulting to unpruned grid for atomic number  56.
 Defaulting to unpruned grid for atomic number  56.
 Defaulting to unpruned grid for atomic number  56.
 Defaulting to unpruned grid for atomic number  56.
 Defaulting to unpruned grid for atomic number  56.
 Defaulting to unpruned grid for atomic number  56.
 Defaulting to unpruned grid for atomic number  56.
 Defaulting to unpruned grid for atomic number  56.
 Defaulting to unpruned grid for atomic number  56.
 Defaulting to unpruned grid for atomic number  56.
 Defaulting to unpruned grid for atomic number  56.
 Defaulting to unpruned grid for atomic number  56.
 Defaulting to unpruned grid for atomic number  56.
 Defaulting to unpruned grid for atomic number  56.
 Defaulting to unpruned grid for atomic number  56.
 Defaulting to unpruned grid for atomic number  56.
 Defaulting to unpruned grid for atomic number  56.
 Defaulting to unpruned grid for atomic number  56.
 Defaulting to unpruned grid for atomic number  56.
 Defaulting to unpruned grid for atomic number  56.
 Defaulting to unpruned grid for atomic number  56.
 Defaulting to unpruned grid for atomic number  56.
 Defaulting to unpruned grid for atomic number  56.
 Defaulting to unpruned grid for atomic number  56.
 Defaulting to unpruned grid for atomic number  56.
 Defaulting to unpruned grid for atomic number  56.
 Defaulting to unpruned grid for atomic number  56.
 Defaulting to unpruned grid for atomic number  56.
 Defaulting to unpruned grid for atomic number  56.
 Defaulting to unpruned grid for atomic number  56.
 Defaulting to unpruned grid for atomic number  56.
 Defaulting to unpruned grid for atomic number  56.
 Defaulting to unpruned grid for atomic number  56.
 Defaulting to unpruned grid for atomic number  56.
 Defaulting to unpruned grid for atomic number  56.
 Defaulting to unpruned grid for atomic number  56.
 CoulSu:  requested number of processors reduced to:  46 ShMem   1 Linda.
 Inv3:  Mode=1 IEnd=     2381643.
 Iteration    1 A*A^-1 deviation from unit magnitude is 3.11D-15 for    595.
 Iteration    1 A*A^-1 deviation from orthogonality  is 1.33D-15 for    194     97.
 Iteration    1 A^-1*A deviation from unit magnitude is 3.33D-15 for    595.
 Iteration    1 A^-1*A deviation from orthogonality  is 1.05D-15 for    363    331.
 CoulSu:  requested number of processors reduced to:  46 ShMem   1 Linda.
 CoulSu:  requested number of processors reduced to:  46 ShMem   1 Linda.
 CoulSu:  requested number of processors reduced to:  47 ShMem   1 Linda.
 CoulSu:  requested number of processors reduced to:  44 ShMem   1 Linda.
 Error on total polarization charges =  0.02025
 SCF Done:  E(RM062X) =  -276.533012248     A.U. after   13 cycles
            NFock= 13  Conv=0.22D-08     -V/T= 2.0769

 **********************************************************************

            Population analysis using the SCF density.

 **********************************************************************

 Orbital symmetries:
       Occupied  (A) (A) (A) (A) (A) (A) (A) (A) (A) (A) (A) (A)
                 (A) (A) (A) (A) (A) (A) (A) (A)
       Virtual   (A) (A) (A) (A) (A) (A) (A) (A) (A) (A) (A) (A)
                 (A) (A) (A) (A) (A) (A) (A) (A) (A) (A) (A) (A)
                 (A) (A) (A) (A) (A) (A) (A) (A) (A) (A) (A) (A)
                 (A) (A) (A) (A) (A) (A) (A) (A) (A) (A) (A) (A)
                 (A) (A) (A) (A) (A) (A) (A) (A) (A) (A) (A) (A)
                 (A) (A) (A) (A)
 The electronic state is 1-A.
 Alpha  occ. eigenvalues --  -19.53943 -19.47883 -19.47770  -6.96157  -1.32109
 Alpha  occ. eigenvalues --   -1.03481  -0.95856  -0.91528  -0.70612  -0.70303
 Alpha  occ. eigenvalues --   -0.69533  -0.51065  -0.42631  -0.39759  -0.39264
 Alpha  occ. eigenvalues --   -0.33650  -0.30193  -0.26903  -0.24920  -0.23635
 Alpha virt. eigenvalues --   -0.00496   0.04475   0.04722   0.04921   0.06504
 Alpha virt. eigenvalues --    0.07098   0.07390   0.08007   0.09539   0.12091
 Alpha virt. eigenvalues --    0.15655   0.15837   0.16088   0.18544   0.19412
 Alpha virt. eigenvalues --    0.20420   0.24671   0.31680   0.34004   0.38189
 Alpha virt. eigenvalues --    0.48484   0.61075   0.72309   0.75393   0.84008
 Alpha virt. eigenvalues --    1.05604   1.07839   1.09327   1.11695   1.14246
 Alpha virt. eigenvalues --    1.14471   1.17775   1.19283   1.20717   1.24011
 Alpha virt. eigenvalues --    1.26640   1.32249   1.38682   1.48218   1.50957
 Alpha virt. eigenvalues --    1.53661   1.57054   1.63091   1.76089   1.94442
 Alpha virt. eigenvalues --    2.05140   2.16321   2.34529   2.80686   2.82678
 Alpha virt. eigenvalues --    2.84538   2.87254   2.94820   3.06976   3.09621
 Alpha virt. eigenvalues --    3.23455   3.27134   3.33187   3.44631   3.58153
 Alpha virt. eigenvalues --    3.68959   3.72708   3.83343  83.11303
          Condensed to atoms (all electrons):
               1          2          3          4          5          6
     1  O    7.758166   0.419724  -0.064867   0.001805  -0.060140   0.316640
     2  B    0.419724   3.719354   0.566297  -0.067062   0.504680  -0.054221
     3  O   -0.064867   0.566297   7.981512   0.140396  -0.062971  -0.000732
     4  Ba   0.001805  -0.067062   0.140396   8.276971   0.152885  -0.006874
     5  O   -0.060140   0.504680  -0.062971   0.152885   8.110060  -0.000142
     6  H    0.316640  -0.054221  -0.000732  -0.006874  -0.000142   0.583100
 Mulliken charges:
               1
     1  O   -0.371328
     2  B   -0.088772
     3  O   -0.559634
     4  Ba   1.501878
     5  O   -0.644373
     6  H    0.162229
 Sum of Mulliken charges =  -0.00000
 Mulliken charges with hydrogens summed into heavy atoms:
               1
     1  O   -0.209099
     2  B   -0.088772
     3  O   -0.559634
     4  Ba   1.501878
     5  O   -0.644373
 Electronic spatial extent (au):  <R**2>=            745.6244
 Charge=             -0.0000 electrons
 Dipole moment (field-independent basis, Debye):
    X=            -21.1907    Y=              1.5236    Z=              0.8951  Tot=             21.2643
 Quadrupole moment (field-independent basis, Debye-Ang):
   XX=            -55.4743   YY=            -54.4615   ZZ=            -39.4996
   XY=              3.7882   XZ=              4.6885   YZ=              0.9409
 Traceless Quadrupole moment (field-independent basis, Debye-Ang):
   XX=             -5.6625   YY=             -4.6497   ZZ=             10.3122
   XY=              3.7882   XZ=              4.6885   YZ=              0.9409
 Octapole moment (field-independent basis, Debye-Ang**2):
  XXX=           -161.1712  YYY=              3.4858  ZZZ=              0.6875  XYY=            -48.0861
  XXY=             13.2147  XXZ=             18.8636  XZZ=            -28.5150  YZZ=              1.0649
  YYZ=             -0.0861  XYZ=              2.8094
 Hexadecapole moment (field-independent basis, Debye-Ang**3):
 XXXX=           -991.4794 YYYY=           -180.7042 ZZZZ=            -47.6398 XXXY=             48.5085
 XXXZ=             71.7952 YYYX=              3.7065 YYYZ=              0.8205 ZZZX=              4.3942
 ZZZY=              0.8442 XXYY=           -183.6961 XXZZ=           -133.7744 YYZZ=            -35.8230
 XXYZ=              9.2156 YYXZ=              1.1645 ZZXY=              1.7982
 N-N= 1.525564063891D+02 E-N=-9.521619609386D+02  KE= 2.567770927032D+02
 PrsmSu:  requested number of processors reduced to:  22 ShMem   1 Linda.
   1 Symmetry operations used in ECPInt.
 ECPInt:  NShTT=     666 NPrTT=    2555 LenC2=     664 LenP2D=    2283.
 LDataN:  DoStor=T MaxTD1= 7 Len=  274
 Number of processors reduced to  25 by ecpmxn.
 D1PCM: PCM CHGder 1st derivatives, ID1Alg=3 FixD1E=F DoIter=F DoCFld=F I1PDM=0.
 CoulSu:  requested number of processors reduced to:  29 ShMem   1 Linda.
 CoulSu:  requested number of processors reduced to:  30 ShMem   1 Linda.
 Calling FoFJK, ICntrl=      2127 FMM=F ISym2X=0 I1Cent= 0 IOpClX= 0 NMat=1 NMatS=1 NMatT=0.
 Defaulting to unpruned grid for atomic number  56.
 Defaulting to unpruned grid for atomic number  56.
 Defaulting to unpruned grid for atomic number  56.
 Defaulting to unpruned grid for atomic number  56.
 Defaulting to unpruned grid for atomic number  56.
 Defaulting to unpruned grid for atomic number  56.
 Defaulting to unpruned grid for atomic number  56.
 Defaulting to unpruned grid for atomic number  56.
 Defaulting to unpruned grid for atomic number  56.
 Defaulting to unpruned grid for atomic number  56.
 Defaulting to unpruned grid for atomic number  56.
 Defaulting to unpruned grid for atomic number  56.
 Defaulting to unpruned grid for atomic number  56.
 Defaulting to unpruned grid for atomic number  56.
 Defaulting to unpruned grid for atomic number  56.
 Defaulting to unpruned grid for atomic number  56.
 Defaulting to unpruned grid for atomic number  56.
 Defaulting to unpruned grid for atomic number  56.
 Defaulting to unpruned grid for atomic number  56.
 Defaulting to unpruned grid for atomic number  56.
 Defaulting to unpruned grid for atomic number  56.
 Defaulting to unpruned grid for atomic number  56.
 Defaulting to unpruned grid for atomic number  56.
 Defaulting to unpruned grid for atomic number  56.
 Defaulting to unpruned grid for atomic number  56.
 Defaulting to unpruned grid for atomic number  56.
 Defaulting to unpruned grid for atomic number  56.
 Defaulting to unpruned grid for atomic number  56.
 Defaulting to unpruned grid for atomic number  56.
 Defaulting to unpruned grid for atomic number  56.
 Defaulting to unpruned grid for atomic number  56.
 Defaulting to unpruned grid for atomic number  56.
 Defaulting to unpruned grid for atomic number  56.
 Defaulting to unpruned grid for atomic number  56.
 Defaulting to unpruned grid for atomic number  56.
 Defaulting to unpruned grid for atomic number  56.
 Defaulting to unpruned grid for atomic number  56.
 Defaulting to unpruned grid for atomic number  56.
 Defaulting to unpruned grid for atomic number  56.
 Defaulting to unpruned grid for atomic number  56.
 Defaulting to unpruned grid for atomic number  56.
 Defaulting to unpruned grid for atomic number  56.
 Defaulting to unpruned grid for atomic number  56.
 Defaulting to unpruned grid for atomic number  56.
 Defaulting to unpruned grid for atomic number  56.
 Defaulting to unpruned grid for atomic number  56.
 Defaulting to unpruned grid for atomic number  56.
 Defaulting to unpruned grid for atomic number  56.
 Defaulting to unpruned grid for atomic number  56.
 ***** Axes restored to original set *****
 -------------------------------------------------------------------
 Center     Atomic                   Forces (Hartrees/Bohr)
 Number     Number              X              Y              Z
 -------------------------------------------------------------------
      1        8           0.014650491   -0.031295254    0.003933672
      2        5          -0.038668908   -0.068537945    0.001632603
      3        8           0.058282321    0.104738682    0.013677887
      4       56           0.006747223   -0.012887715    0.000657360
      5        8          -0.043215395    0.009054650   -0.009151509
      6        1           0.002204268   -0.001072417   -0.010750012
 -------------------------------------------------------------------
 Cartesian Forces:  Max     0.104738682 RMS     0.036761950

 GradGradGradGradGradGradGradGradGradGradGradGradGradGradGradGradGradGrad
 Berny optimization.
 Using GEDIIS/GDIIS optimizer.
 FormGI is forming the generalized inverse of G from B-inverse, IUseBI=4.
 Internal  Forces:  Max     0.113657831 RMS     0.031993873
 Search for a local minimum.
 Step number   3 out of a maximum of   10
 All quantities printed in internal units (Hartrees-Bohrs-Radians)
 Mixed Optimization -- RFO/linear search
 Update second derivatives using D2CorX and points    2    3
 DE= -2.81D-02 DEPred=-4.57D-02 R= 6.14D-01
 TightC=F SS=  1.41D+00  RLast= 8.71D-01 DXNew= 8.4853D-01 2.6130D+00
 Trust test= 6.14D-01 RLast= 8.71D-01 DXMaxT set to 8.49D-01
 The second derivative matrix:
                          R1        R2        R3        R4        R5
           R1           0.16397
           R2           0.06475   1.05354
           R3           0.04751   0.04272   0.41866
           R4           0.00519   0.03634   0.00214   0.03325
           R5           0.04062  -0.12865   0.06195  -0.00193   0.78199
           R6          -0.00071  -0.01243   0.00603  -0.00054   0.00741
           R7          -0.00551  -0.00589  -0.01103  -0.00077  -0.00225
           A1           0.00512   0.00775   0.01056   0.00101   0.00303
           A2           0.01695  -0.06927   0.02341  -0.00096  -0.03301
           A3          -0.00265   0.04771  -0.00112   0.00436   0.01703
           A4          -0.00658   0.04279  -0.01428   0.00468   0.00671
           A5           0.01560   0.00162   0.03176   0.00131   0.00321
           A6          -0.00465   0.02874  -0.01445   0.00124  -0.00051
           A7          -0.00140   0.00749  -0.00410   0.00032  -0.00010
           D1           0.00222  -0.07233   0.01926  -0.00358   0.00264
           D2          -0.00516   0.07808  -0.02556   0.00376  -0.00216
           D3           0.00707  -0.05042   0.02338  -0.00226   0.00107
                          R6        R7        A1        A2        A3
           R6           0.03244
           R7          -0.00041   0.05985
           A1           0.00019  -0.00104   0.16105
           A2           0.00313  -0.00045   0.00083   0.23219
           A3          -0.00317  -0.00118   0.00095   0.00811   0.24744
           A4          -0.00396   0.00000  -0.00012   0.00374  -0.00128
           A5           0.00164  -0.00263   0.00269  -0.00033   0.00315
           A6          -0.00132   0.00069  -0.00058   0.00071   0.00099
           A7          -0.00037   0.00021  -0.00018   0.00022   0.00020
           D1           0.00205  -0.00042   0.00003  -0.00017  -0.00535
           D2          -0.00261   0.00081  -0.00043   0.00078   0.00485
           D3           0.00219  -0.00106   0.00085  -0.00104  -0.00207
                          A4        A5        A6        A7        D1
           A4           0.25137
           A5          -0.00055   0.25680
           A6           0.00318  -0.00215   0.00407
           A7           0.00081  -0.00062   0.00048   0.00243
           D1          -0.00878   0.00212  -0.00339  -0.00092   0.00949
           D2           0.00914  -0.00317   0.00394   0.00107  -0.00815
           D3          -0.00567   0.00339  -0.00300  -0.00082   0.00585
                          D2        D3
           D2           0.01160
           D3          -0.00677   0.00740
 ITU=  1  1  0
 Use linear search instead of GDIIS.
     Eigenvalues ---    0.00228   0.00283   0.00387   0.03208   0.05200
     Eigenvalues ---    0.13170   0.15931   0.16371   0.16573   0.42111
     Eigenvalues ---    0.74034   1.11490
 RFO step:  Lambda=-2.32220472D-02 EMin= 2.28200353D-03
 Quartic linear search produced a step of -0.29291.
 Iteration  1 RMS(Cart)=  0.09166385 RMS(Int)=  0.04975790
 Iteration  2 RMS(Cart)=  0.04669046 RMS(Int)=  0.00609196
 Iteration  3 RMS(Cart)=  0.00284147 RMS(Int)=  0.00532146
 Iteration  4 RMS(Cart)=  0.00001212 RMS(Int)=  0.00532145
 Iteration  5 RMS(Cart)=  0.00000022 RMS(Int)=  0.00532145
 Variable       Old X    -DE/DX   Delta X   Delta X   Delta X     New X
                                 (Linear)    (Quad)   (Total)
[...]
 Hexadecapole moment (field-independent basis, Debye-Ang**3):
 XXXX=           -911.4562 YYYY=           -193.8884 ZZZZ=            -47.1968 XXXY=             85.3059
 XXXZ=             -0.2804 YYYX=              7.3577 YYYZ=              0.0042 ZZZX=             -0.0166
 ZZZY=              0.0046 XXYY=           -164.6767 XXZZ=           -139.9359 YYZZ=            -37.9159
 XXYZ=              0.0790 YYXZ=              0.0773 ZZXY=              0.9303
 N-N= 1.505724963642D+02 E-N=-9.474674903920D+02  KE= 2.563972016076D+02
 PrsmSu:  requested number of processors reduced to:  22 ShMem   1 Linda.
   1 Symmetry operations used in ECPInt.
 ECPInt:  NShTT=     666 NPrTT=    2555 LenC2=     664 LenP2D=    2284.
 LDataN:  DoStor=T MaxTD1= 7 Len=  274
 Number of processors reduced to  25 by ecpmxn.
 D1PCM: PCM CHGder 1st derivatives, ID1Alg=3 FixD1E=F DoIter=F DoCFld=F I1PDM=0.
 CoulSu:  requested number of processors reduced to:  29 ShMem   1 Linda.
 CoulSu:  requested number of processors reduced to:  30 ShMem   1 Linda.
 Calling FoFJK, ICntrl=      2127 FMM=F ISym2X=0 I1Cent= 0 IOpClX= 0 NMat=1 NMatS=1 NMatT=0.
 Defaulting to unpruned grid for atomic number  56.
 Defaulting to unpruned grid for atomic number  56.
 Defaulting to unpruned grid for atomic number  56.
 Defaulting to unpruned grid for atomic number  56.
 Defaulting to unpruned grid for atomic number  56.
 Defaulting to unpruned grid for atomic number  56.
 Defaulting to unpruned grid for atomic number  56.
 Defaulting to unpruned grid for atomic number  56.
 Defaulting to unpruned grid for atomic number  56.
 Defaulting to unpruned grid for atomic number  56.
 Defaulting to unpruned grid for atomic number  56.
 Defaulting to unpruned grid for atomic number  56.
 Defaulting to unpruned grid for atomic number  56.
 Defaulting to unpruned grid for atomic number  56.
 Defaulting to unpruned grid for atomic number  56.
 Defaulting to unpruned grid for atomic number  56.
 Defaulting to unpruned grid for atomic number  56.
 Defaulting to unpruned grid for atomic number  56.
 Defaulting to unpruned grid for atomic number  56.
 Defaulting to unpruned grid for atomic number  56.
 Defaulting to unpruned grid for atomic number  56.
 Defaulting to unpruned grid for atomic number  56.
 Defaulting to unpruned grid for atomic number  56.
 Defaulting to unpruned grid for atomic number  56.
 Defaulting to unpruned grid for atomic number  56.
 Defaulting to unpruned grid for atomic number  56.
 Defaulting to unpruned grid for atomic number  56.
 Defaulting to unpruned grid for atomic number  56.
 Defaulting to unpruned grid for atomic number  56.
 Defaulting to unpruned grid for atomic number  56.
 Defaulting to unpruned grid for atomic number  56.
 Defaulting to unpruned grid for atomic number  56.
 Defaulting to unpruned grid for atomic number  56.
 Defaulting to unpruned grid for atomic number  56.
 Defaulting to unpruned grid for atomic number  56.
 Defaulting to unpruned grid for atomic number  56.
 Defaulting to unpruned grid for atomic number  56.
 Defaulting to unpruned grid for atomic number  56.
 Defaulting to unpruned grid for atomic number  56.
 Defaulting to unpruned grid for atomic number  56.
 Defaulting to unpruned grid for atomic number  56.
 Defaulting to unpruned grid for atomic number  56.
 Defaulting to unpruned grid for atomic number  56.
 Defaulting to unpruned grid for atomic number  56.
 Defaulting to unpruned grid for atomic number  56.
 Defaulting to unpruned grid for atomic number  56.
 Defaulting to unpruned grid for atomic number  56.
 Defaulting to unpruned grid for atomic number  56.
 Defaulting to unpruned grid for atomic number  56.
 ***** Axes restored to original set *****
 -------------------------------------------------------------------
 Center     Atomic                   Forces (Hartrees/Bohr)
 Number     Number              X              Y              Z
 -------------------------------------------------------------------
      1        8           0.001279198    0.000401767    0.000253595
      2        5           0.000974460   -0.000271462    0.000013578
      3        8          -0.000188696    0.000268983    0.000080601
      4       56          -0.000072472   -0.000160197   -0.000090979
      5        8          -0.000652179   -0.000009005   -0.000021809
      6        1          -0.001340312   -0.000230086   -0.000234985
 -------------------------------------------------------------------
 Cartesian Forces:  Max     0.001340312 RMS     0.000546182

 GradGradGradGradGradGradGradGradGradGradGradGradGradGradGradGradGradGrad
 Berny optimization.
 Using GEDIIS/GDIIS optimizer.
 FormGI is forming the generalized inverse of G from B-inverse, IUseBI=4.
 Internal  Forces:  Max     0.001463162 RMS     0.000406253
 Search for a local minimum.
 Step number  10 out of a maximum of   10
 All quantities printed in internal units (Hartrees-Bohrs-Radians)
 Mixed Optimization -- En-DIIS/RFO-DIIS
 Update second derivatives using D2CorX and points    6    7    8    9   10
 DE= -2.66D-04 DEPred=-2.69D-04 R= 9.88D-01
 TightC=F SS=  1.41D+00  RLast= 1.23D-01 DXNew= 1.0091D+00 3.6865D-01
 Trust test= 9.88D-01 RLast= 1.23D-01 DXMaxT set to 6.00D-01
 The second derivative matrix:
                          R1        R2        R3        R4        R5
           R1           0.23698
           R2          -0.00379   0.79440
           R3           0.05382  -0.03658   0.38642
           R4           0.01881   0.01583   0.00387   0.06558
           R5           0.05019  -0.05679   0.02119   0.01484   0.72194
           R6          -0.00259   0.00021   0.00432  -0.01714  -0.00215
           R7          -0.02648  -0.02926  -0.01299  -0.02006  -0.00296
           A1           0.02902   0.03884  -0.00657   0.01706  -0.02023
           A2          -0.00588  -0.07023   0.00278  -0.00437  -0.04452
           A3           0.00364   0.06344  -0.04521   0.02478  -0.01714
           A4          -0.02219  -0.01568   0.02834  -0.01896   0.06711
           A5           0.01306  -0.00710   0.04577   0.00365   0.00810
           A6          -0.01786   0.03215   0.01959  -0.01069   0.00516
           A7          -0.00157   0.00616  -0.00317  -0.00016  -0.00271
           D1          -0.00545  -0.03422   0.01603   0.00067  -0.00005
           D2           0.01578   0.03651  -0.02559  -0.00170   0.00045
           D3          -0.00741  -0.01666   0.02668   0.00469   0.00154
                          R6        R7        A1        A2        A3
           R6           0.04071
           R7           0.00794   0.06590
           A1          -0.00621  -0.00847   0.15944
           A2           0.00486   0.00066  -0.00667   0.21406
           A3          -0.01174  -0.01934  -0.01293  -0.00253   0.18214
           A4           0.01105   0.01189   0.01720   0.01276   0.04440
           A5           0.00152   0.00113  -0.00001  -0.00421   0.00419
           A6           0.00214   0.00856  -0.01091   0.00797  -0.01690
           A7          -0.00062   0.00141  -0.00004  -0.00015  -0.00501
           D1          -0.00367  -0.00005  -0.00986   0.00013   0.00706
           D2           0.00413   0.00037   0.00954   0.00064  -0.00612
           D3          -0.00576  -0.00172  -0.00815  -0.00005   0.00856
                          A4        A5        A6        A7        D1
           A4           0.18171
           A5          -0.01197   0.25608
           A6           0.01103   0.00742   0.01293
           A7          -0.00063  -0.00249   0.00051   0.02026
           D1           0.00872   0.00944   0.00629  -0.00786   0.05577
           D2          -0.01081  -0.01222  -0.00507   0.00916  -0.04073
           D3           0.00981   0.01252   0.00682  -0.00078   0.04734
                          D2        D3
           D2           0.04211
           D3          -0.03902   0.04941
 ITU=  1 -1  1  0  1 -1  1  1  1  0
 Use linear search instead of GDIIS.
     Eigenvalues ---    0.00650   0.02170   0.03099   0.04581   0.10910
     Eigenvalues ---    0.12386   0.14525   0.16613   0.25260   0.41678
     Eigenvalues ---    0.68778   0.84100
 RFO step:  Lambda=-7.05890779D-06 EMin= 6.50272948D-03
 Quartic linear search produced a step of -0.01846.
 Iteration  1 RMS(Cart)=  0.00437632 RMS(Int)=  0.00001729
 Iteration  2 RMS(Cart)=  0.00001299 RMS(Int)=  0.00000229
 Iteration  3 RMS(Cart)=  0.00000000 RMS(Int)=  0.00000229
 Variable       Old X    -DE/DX   Delta X   Delta X   Delta X     New X
                                 (Linear)    (Quad)   (Total)
    R1        2.72049  -0.00015   0.00047  -0.00269  -0.00223   2.71826
    R2        1.82187  -0.00146  -0.00009  -0.00193  -0.00202   1.81986
    R3        2.56693   0.00009  -0.00026   0.00115   0.00089   2.56782
    R4        5.45252   0.00007  -0.00026   0.00016  -0.00010   5.45242
    R5        2.55691   0.00063  -0.00009   0.00116   0.00107   2.55799
    R6        4.81615  -0.00011   0.00035  -0.00168  -0.00133   4.81482
    R7        4.80398  -0.00006  -0.00030  -0.00215  -0.00244   4.80153
    A1        1.85234   0.00011   0.00005   0.00144   0.00149   1.85383
    A2        2.06409   0.00024  -0.00021   0.00156   0.00134   2.06544
    A3        2.05820  -0.00013   0.00004   0.00002   0.00005   2.05826
    A4        2.16089  -0.00011   0.00017  -0.00157  -0.00140   2.15949
    A5        0.97825   0.00014  -0.00003   0.00046   0.00043   0.97868
    A6        3.14692   0.00017   0.00002   0.00085   0.00086   3.14778
    A7        3.14670  -0.00012  -0.00163  -0.00473  -0.00635   3.14034
    D1       -0.00206  -0.00010   0.00095   0.00532   0.00627   0.00421
    D2        3.13937   0.00012   0.00066   0.00799   0.00865  -3.13517
    D3        0.00281  -0.00019  -0.00070  -0.00403  -0.00474  -0.00192
         Item               Value     Threshold  Converged?
 Maximum Force            0.001463     0.000450     NO 
 RMS     Force            0.000406     0.000300     NO 
 Maximum Displacement     0.009666     0.001800     NO 
 RMS     Displacement     0.004379     0.001200     NO 
 Predicted change in Energy=-3.611917D-06
 Optimization stopped.
    -- Number of steps exceeded,  NStep=  10
    -- Flag reset to prevent archiving.
                           ----------------------------
                           ! Non-Optimized Parameters !
                           ! (Angstroms and Degrees)  !
 --------------------------                            --------------------------
 ! Name  Definition              Value          Derivative Info.                !
 --------------------------------------------------------------------------------
 ! R1    R(1,2)                  1.4384         -DE/DX =   -0.0001              !
 ! R2    R(1,6)                  0.963          -DE/DX =   -0.0015              !
 ! R3    R(2,3)                  1.3588         -DE/DX =    0.0001              !
 ! R4    R(2,4)                  2.8853         -DE/DX =    0.0001              !
 ! R5    R(2,5)                  1.3536         -DE/DX =    0.0006              !
 ! R6    R(3,4)                  2.5479         -DE/DX =   -0.0001              !
 ! R7    R(4,5)                  2.5409         -DE/DX =   -0.0001              !
 ! A1    A(2,1,6)              106.2168         -DE/DX =    0.0001              !
 ! A2    A(1,2,3)              118.3408         -DE/DX =    0.0002              !
 ! A3    A(1,2,5)              117.9294         -DE/DX =   -0.0001              !
 ! A4    A(3,2,5)              123.7296         -DE/DX =   -0.0001              !
 ! A5    A(3,4,5)               56.0743         -DE/DX =    0.0001              !
 ! A6    L(1,2,4,3,-1)         180.3545         -DE/DX =    0.0002              !
 ! A7    L(1,2,4,3,-2)         179.9284         -DE/DX =   -0.0001              !
 ! D1    D(6,1,2,3)              0.2412         -DE/DX =   -0.0001              !
 ! D2    D(6,1,2,5)           -179.632          -DE/DX =    0.0001              !
 ! D3    D(5,3,4,2)             -0.1101         -DE/DX =   -0.0002              !
 --------------------------------------------------------------------------------
 GradGradGradGradGradGradGradGradGradGradGradGradGradGradGradGradGradGrad

                          Input orientation:                          
 ---------------------------------------------------------------------
 Center     Atomic      Atomic             Coordinates (Angstroms)
 Number     Number       Type             X           Y           Z
 ---------------------------------------------------------------------
      1          8           0        6.845672   -1.255549   13.390349
      2          5           0        6.207185    0.034732   13.385765
      3          8           0        6.972491    1.131952   13.621471
      4         56           0        4.911713    2.612908   13.386270
      5          8           0        4.876394    0.082379   13.145981
      6          1           0        7.778065   -1.092382   13.573374
 ---------------------------------------------------------------------
                    Distance matrix (angstroms):
                    1          2          3          4          5
     1  O    0.000000
     2  B    1.439622   0.000000
     3  O    2.402012   1.358360   0.000000
     4  Ba   4.324947   2.885349   2.548598   0.000000
     5  O    2.393287   1.353060   2.391927   2.542156   0.000000
     6  H    0.964094   1.942484   2.366204   4.688299   3.159497
                    6
     6  H    0.000000
 Stoichiometry    BBaHO3
 Framework group  C1[X(BBaHO3)]
 Deg. of freedom    12
 Full point group                 C1      NOp   1
 Largest Abelian subgroup         C1      NOp   1
 Largest concise Abelian subgroup C1      NOp   1
                         Standard orientation:                         
 ---------------------------------------------------------------------
 Center     Atomic      Atomic             Coordinates (Angstroms)
 Number     Number       Type             X           Y           Z
 ---------------------------------------------------------------------
      1          8           0        3.282517   -0.077282    0.004188
      2          5           0        1.843296   -0.043772   -0.001343
      3          8           0        1.228097    1.167287   -0.004020
      4         56           0       -1.041588    0.008036    0.000578
      5          8           0        1.181956   -1.224194   -0.003770
      6          1           0        3.571875    0.842364    0.003149
 ---------------------------------------------------------------------
 Rotational constants (GHZ):          10.8513265           1.2190643           1.0959474

 **********************************************************************

            Population analysis using the SCF density.

 **********************************************************************

 Orbital symmetries:
       Occupied  (A) (A) (A) (A) (A) (A) (A) (A) (A) (A) (A) (A)
                 (A) (A) (A) (A) (A) (A) (A) (A)
       Virtual   (A) (A) (A) (A) (A) (A) (A) (A) (A) (A) (A) (A)
                 (A) (A) (A) (A) (A) (A) (A) (A) (A) (A) (A) (A)
                 (A) (A) (A) (A) (A) (A) (A) (A) (A) (A) (A) (A)
                 (A) (A) (A) (A) (A) (A) (A) (A) (A) (A) (A) (A)
                 (A) (A) (A) (A) (A) (A) (A) (A) (A) (A) (A) (A)
                 (A) (A) (A) (A)
 The electronic state is 1-A.
 Alpha  occ. eigenvalues --  -19.56081 -19.49478 -19.49351  -6.99580  -1.31508
 Alpha  occ. eigenvalues --   -1.04338  -0.95536  -0.91605  -0.70070  -0.69675
 Alpha  occ. eigenvalues --   -0.68923  -0.52817  -0.43160  -0.40058  -0.38754
 Alpha  occ. eigenvalues --   -0.34990  -0.30201  -0.27635  -0.25707  -0.25449
 Alpha virt. eigenvalues --   -0.00454   0.04558   0.04820   0.05003   0.06679
 Alpha virt. eigenvalues --    0.07366   0.07443   0.08309   0.09585   0.12182
 Alpha virt. eigenvalues --    0.16069   0.16126   0.16355   0.18128   0.20777
 Alpha virt. eigenvalues --    0.21001   0.22865   0.29935   0.33960   0.40204
 Alpha virt. eigenvalues --    0.45232   0.57325   0.67235   0.69857   0.77837
 Alpha virt. eigenvalues --    1.05693   1.08595   1.08776   1.10236   1.14253
 Alpha virt. eigenvalues --    1.16554   1.18392   1.20001   1.21476   1.23783
 Alpha virt. eigenvalues --    1.27436   1.33602   1.34209   1.45491   1.48486
 Alpha virt. eigenvalues --    1.56083   1.57564   1.59551   1.70289   1.85170
 Alpha virt. eigenvalues --    1.99129   2.23644   2.35845   2.81722   2.81825
 Alpha virt. eigenvalues --    2.83763   2.91013   2.93377   2.95016   3.05510
 Alpha virt. eigenvalues --    3.14713   3.23520   3.25272   3.35465   3.49162
 Alpha virt. eigenvalues --    3.57879   3.63307   3.86090  83.12624
          Condensed to atoms (all electrons):
               1          2          3          4          5          6
     1  O    7.720187   0.419125  -0.048417   0.000003  -0.039694   0.313040
     2  B    0.419125   3.639564   0.480204  -0.070260   0.490620  -0.032682
     3  O   -0.048417   0.480204   8.138535   0.150098  -0.050342   0.001956
     4  Ba   0.000003  -0.070260   0.150098   8.314147   0.147653  -0.001759
     5  O   -0.039694   0.490620  -0.050342   0.147653   8.111878   0.003319
     6  H    0.313040  -0.032682   0.001956  -0.001759   0.003319   0.549961
 Mulliken charges:
               1
     1  O   -0.364244
     2  B    0.073428
     3  O   -0.672034
     4  Ba   1.460118
     5  O   -0.663434
     6  H    0.166165
 Sum of Mulliken charges =  -0.00000
 Mulliken charges with hydrogens summed into heavy atoms:
               1
     1  O   -0.198079
     2  B    0.073428
     3  O   -0.672034
     4  Ba   1.460118
     5  O   -0.663434
 Electronic spatial extent (au):  <R**2>=            729.8845
 Charge=             -0.0000 electrons
 Dipole moment (field-independent basis, Debye):
    X=            -19.3061    Y=              1.9445    Z=              0.0273  Tot=             19.4038
 Quadrupole moment (field-independent basis, Debye-Ang):
   XX=            -52.1758   YY=            -54.5185   ZZ=            -40.7330
   XY=              6.1854   XZ=              0.0010   YZ=              0.0067
 Traceless Quadrupole moment (field-independent basis, Debye-Ang):
   XX=             -3.0334   YY=             -5.3761   ZZ=              8.4094
   XY=              6.1854   XZ=              0.0010   YZ=              0.0067
 Octapole moment (field-independent basis, Debye-Ang**2):
  XXX=           -141.7974  YYY=              3.9471  ZZZ=              0.0742  XYY=            -42.8676
  XXY=             23.2460  XXZ=             -0.0448  XZZ=            -30.7562  YZZ=              0.6017
  YYZ=              0.0803  XYZ=              0.0228
 Hexadecapole moment (field-independent basis, Debye-Ang**3):
 XXXX=           -911.4562 YYYY=           -193.8884 ZZZZ=            -47.1968 XXXY=             85.3059
 XXXZ=             -0.2804 YYYX=              7.3577 YYYZ=              0.0042 ZZZX=             -0.0166
 ZZZY=              0.0046 XXYY=           -164.6767 XXZZ=           -139.9359 YYZZ=            -37.9159
 XXYZ=              0.0790 YYXZ=              0.0773 ZZXY=              0.9303
 N-N= 1.505724963642D+02 E-N=-9.474674903920D+02  KE= 2.563972016076D+02


 My opinions may have changed, but not the fact that I am right.
                       -- Ashleigh Brilliant
 Error termination request processed by link 9999.
 Error termination via Lnk1e in /home/pub/g16/l9999.exe at Fri Jun 16 04:47:21 2023.
 Job cpu time:       0 days  0 hours 30 minutes 11.9 seconds.
 Elapsed time:       0 days  0 hours  0 minutes 40.1 seconds.
 File lengths (MBytes):  RWF=     22 Int=      0 D2E=      0 Chk=      2 Scr=      1
