 Entering Gaussian System, Link 0=g16
 Initial command:
 /home/pub/g16/l1.exe "/home/zz1/gauss/SCRDIR/Gau-4035672.inp" -scrdir="/home/zz1/gauss/SCRDIR/"
 Entering Link 1 = /home/pub/g16/l1.exe PID=   4035674.
  
 Copyright (c) 1988,1990,1992,1993,1995,1998,2003,2009,2016,
            Gaussian, Inc.  All Rights Reserved.
  
 This is part of the Gaussian(R) 16 program.  It is based on
 the Gaussian(R) 09 system (copyright 2009, Gaussian, Inc.),
 the Gaussian(R) 03 system (copyright 2003, Gaussian, Inc.),
 the Gaussian(R) 98 system (copyright 1998, Gaussian, Inc.),
 the Gaussian(R) 94 system (copyright 1995, Gaussian, Inc.),
 the Gaussian 92(TM) system (copyright 1992, Gaussian, Inc.),
 the Gaussian 90(TM) system (copyright 1990, Gaussian, Inc.),
 the Gaussian 88(TM) system (copyright 1988, Gaussian, Inc.),
 the Gaussian 86(TM) system (copyright 1986, Carnegie Mellon
 University), and the Gaussian 82(TM) system (copyright 1983,
 Carnegie Mellon University). Gaussian is a federally registered
 trademark of Gaussian, Inc.
  
 This software contains proprietary and confidential information,
 including trade secrets, belonging to Gaussian, Inc.
  
 This software is provided under written license and may be
 used, copied, transmitted, or stored only in accord with that
 written license.
  
 The following legend is applicable only to US Government
 contracts under FAR:
  
                    RESTRICTED RIGHTS LEGEND
  
 Use, reproduction and disclosure by the US Government is
 subject to restrictions as set forth in subparagraphs (a)
 and (c) of the Commercial Computer Software - Restricted
 Rights clause in FAR 52.227-19.
  
 Gaussian, Inc.
 340 Quinnipiac St., Bldg. 40, Wallingford CT 06492
  
  
 ---------------------------------------------------------------
 Warning -- This program may not be used in any manner that
 competes with the business of Gaussian, Inc. or will provide
 assistance to any competitor of Gaussian, Inc.  The licensee
 of this program is prohibited from giving any competitor of
 Gaussian, Inc. access to this program.  By using this program,
 the user acknowledges that Gaussian, Inc. is engaged in the
 business of creating and licensing software in the field of
 computational chemistry and represents and warrants to the
 licensee that it is not a competitor of Gaussian, Inc. and that
 it will not use this program in any manner prohibited above.
 ---------------------------------------------------------------
  

 Cite this work as:
 Gaussian 16, Revision A.03,
 M. J. Frisch, G. W. Trucks, H. B. Schlegel, G. E. Scuseria, 
 M. A. Robb, J. R. Cheeseman, G. Scalmani, V. Barone, 
 G. A. Petersson, H. Nakatsuji, X. Li, M. Caricato, A. V. Marenich, 
 J. Bloino, B. G. Janesko, R. Gomperts, B. Mennucci, H. P. Hratchian, 
 J. V. Ortiz, A. F. Izmaylov, J. L. Sonnenberg, D. Williams-Young, 
 F. Ding, F. Lipparini, F. Egidi, J. Goings, B. Peng, A. Petrone, 
 T. Henderson, D. Ranasinghe, V. G. Zakrzewski, J. Gao, N. Rega, 
 G. Zheng, W. Liang, M. Hada, M. Ehara, K. Toyota, R. Fukuda, 
 J. Hasegawa, M. Ishida, T. Nakajima, Y. Honda, O. Kitao, H. Nakai, 
 T. Vreven, K. Throssell, J. A. Montgomery, Jr., J. E. Peralta, 
 F. Ogliaro, M. J. Bearpark, J. J. Heyd, E. N. Brothers, K. N. Kudin, 
 V. N. Staroverov, T. A. Keith, R. Kobayashi, J. Normand, 
 K. Raghavachari, A. P. Rendell, J. C. Burant, S. S. Iyengar, 
 J. Tomasi, M. Cossi, J. M. Millam, M. Klene, C. Adamo, R. Cammi, 
 J. W. Ochterski, R. L. Martin, K. Morokuma, O. Farkas, 
 J. B. Foresman, and D. J. Fox, Gaussian, Inc., Wallingford CT, 2016.
 
 ******************************************
 Gaussian 16:  ES64L-G16RevA.03 25-Dec-2016
                22-Jun-2023 
 ******************************************
 %chk=/home/zz1/proj/gauss/new/chk/Ba-SOSBOR03-2/32.chk
 %CPU=0-48
 SetSPE:  set environment variable "MP_BIND" = "yes"
 SetSPE:  set environment variable "MP_BLIST" = "0,1,2,3,4,5,6,7,8,9,10,11,12,13,14,15,16,17,18,19,20,21,22,23,24,25,26,27,28,29,30,31,32,33,34,35,36,37,38,39,40,41,42,43,44,45,46,47,48"
 Will use up to   49 processors via shared memory.
 ----------------------------------------------------
 # M062X/Def2SVP opt(MaxCyc=10)/freq SCRF pop(Always)
 ----------------------------------------------------
 1/6=10,18=20,19=15,26=3,38=1/1,3;
 2/9=110,12=2,17=6,18=5,40=1/2;
 3/5=43,7=101,11=2,25=1,30=1,70=2201,71=1,74=-55/1,2,3;
 4//1;
 5/5=2,38=5/2;
 6/7=2,8=2,9=2,10=2,28=1/1;
 7//1,2,3,16;
 1/6=10,18=20,19=15,26=3/3(2);
 2/9=110/2;
 99//99;
 2/9=110/2;
 3/5=43,7=101,11=2,25=1,30=1,70=2205,71=1,74=-55/1,2,3;
 4/5=5,16=3,69=1/1;
 5/5=2,38=5/2;
 6/7=2,8=2,9=2,10=2,28=1/1;
 7//1,2,3,16;
 1/6=10,18=20,19=15,26=3/3(-6);
 2/9=110/2;
 6/7=2,8=2,9=2,10=2,19=2,28=1/1;
 99/9=1/99;
 -------------
 Ba-SOSBOR03-2
 -------------
 Symbolic Z-matrix:
 Charge =  0 Multiplicity = 2
 O                    -0.8574    2.15512   1.42334 
 O                    -0.68723  -0.33825   1.56407 
 O                     0.94416  -0.38127   3.1151 
 O                     1.07513   2.40567   2.92153 
 C                     0.28473   1.75256   2.22884 
 C                     0.23888   0.2487    2.29211 
 Ba                    1.78651   5.01061   3.17028 
 H                    -1.10081  -1.17689   2.14553 
 

 GradGradGradGradGradGradGradGradGradGradGradGradGradGradGradGradGradGrad
 Berny optimization.
 Initialization pass.
                           ----------------------------
                           !    Initial Parameters    !
                           ! (Angstroms and Degrees)  !
 --------------------------                            --------------------------
 ! Name  Definition              Value          Derivative Info.                !
 --------------------------------------------------------------------------------
 ! R1    R(1,5)                  1.4544         estimate D2E/DX2                !
 ! R2    R(2,6)                  1.3161         estimate D2E/DX2                !
 ! R3    R(2,8)                  1.1011         estimate D2E/DX2                !
 ! R4    R(3,6)                  1.2536         estimate D2E/DX2                !
 ! R5    R(4,5)                  1.2374         estimate D2E/DX2                !
 ! R6    R(4,7)                  2.7118         estimate D2E/DX2                !
 ! R7    R(5,6)                  1.5059         estimate D2E/DX2                !
 ! A1    A(6,2,8)              108.1704         estimate D2E/DX2                !
 ! A2    A(5,4,7)              136.5476         estimate D2E/DX2                !
 ! A3    A(1,5,4)              131.7252         estimate D2E/DX2                !
 ! A4    A(1,5,6)              106.0079         estimate D2E/DX2                !
 ! A5    A(4,5,6)              121.5361         estimate D2E/DX2                !
 ! A6    A(2,6,3)              122.3376         estimate D2E/DX2                !
 ! A7    A(2,6,5)              116.3303         estimate D2E/DX2                !
 ! A8    A(3,6,5)              120.8166         estimate D2E/DX2                !
 ! D1    D(8,2,6,3)             31.4435         estimate D2E/DX2                !
 ! D2    D(8,2,6,5)           -140.3755         estimate D2E/DX2                !
 ! D3    D(7,4,5,1)            -16.4722         estimate D2E/DX2                !
 ! D4    D(7,4,5,6)            174.7851         estimate D2E/DX2                !
 ! D5    D(1,5,6,2)              5.3083         estimate D2E/DX2                !
 ! D6    D(1,5,6,3)           -166.644          estimate D2E/DX2                !
 ! D7    D(4,5,6,2)            176.5901         estimate D2E/DX2                !
 ! D8    D(4,5,6,3)              4.6377         estimate D2E/DX2                !
 --------------------------------------------------------------------------------
 Trust Radius=3.00D-01 FncErr=1.00D-07 GrdErr=1.00D-06 EigMax=2.50D+02 EigMin=1.00D-04
 Number of steps in this run=     10 maximum allowed number of steps=    100.
 GradGradGradGradGradGradGradGradGradGradGradGradGradGradGradGradGradGrad

                          Input orientation:                          
 ---------------------------------------------------------------------
 Center     Atomic      Atomic             Coordinates (Angstroms)
 Number     Number       Type             X           Y           Z
 ---------------------------------------------------------------------
      1          8           0       -0.857400    2.155120    1.423340
      2          8           0       -0.687230   -0.338250    1.564070
      3          8           0        0.944160   -0.381270    3.115100
      4          8           0        1.075130    2.405670    2.921530
      5          6           0        0.284730    1.752560    2.228840
      6          6           0        0.238880    0.248700    2.292110
      7         56           0        1.786510    5.010610    3.170280
      8          1           0       -1.100810   -1.176890    2.145530
 ---------------------------------------------------------------------
                    Distance matrix (angstroms):
                    1          2          3          4          5
     1  O    0.000000
     2  O    2.503129   0.000000
     3  O    3.541320   2.251439   0.000000
     4  O    2.458052   3.532380   2.796723   0.000000
     5  C    1.454423   2.399607   2.402818   1.237378   0.000000
     6  C    2.364536   1.316143   1.253633   2.397499   1.505889
     7  Ba   4.265663   6.108159   5.457561   2.711762   3.708981
     8  H    3.418055   1.101118   2.398954   4.262819   3.241657
                    6          7          8
     6  C    0.000000
     7  Ba   5.083515   0.000000
     8  H    1.961775   6.904483   0.000000
 Stoichiometry    C2HBaO4(2)
 Framework group  C1[X(C2HBaO4)]
 Deg. of freedom    18
 Full point group                 C1      NOp   1
 Largest Abelian subgroup         C1      NOp   1
 Largest concise Abelian subgroup C1      NOp   1
                         Standard orientation:                         
 ---------------------------------------------------------------------
 Center     Atomic      Atomic             Coordinates (Angstroms)
 Number     Number       Type             X           Y           Z
 ---------------------------------------------------------------------
      1          8           0       -1.888227    1.709673    0.082029
      2          8           0       -4.076752    0.510902   -0.115369
      3          8           0       -3.228849   -1.567954    0.053131
      4          8           0       -0.675097   -0.427815    0.043570
      5          6           0       -1.689805    0.274588   -0.046443
      6          6           0       -3.067061   -0.332927   -0.088739
      7         56           0        2.006583   -0.027836   -0.003986
      8          1           0       -4.876031    0.110380    0.527433
 ---------------------------------------------------------------------
 Rotational constants (GHZ):           5.2468141           0.4177318           0.3873960
 Standard basis: def2SVP (5D, 7F)
 There are   120 symmetry adapted cartesian basis functions of A   symmetry.
 There are   112 symmetry adapted basis functions of A   symmetry.
   112 basis functions,   211 primitive gaussians,   120 cartesian basis functions
    28 alpha electrons       27 beta electrons
       nuclear repulsion energy       272.5431469432 Hartrees.
 NAtoms=    8 NActive=    8 NUniq=    8 SFac= 1.00D+00 NAtFMM=   60 NAOKFM=F Big=F
 Integral buffers will be    131072 words long.
 Raffenetti 2 integral format.
 Two-electron integral symmetry is turned on.
 ------------------------------------------------------------------------------
 Polarizable Continuum Model (PCM)
 =================================
 Model                : PCM.
 Atomic radii         : UFF (Universal Force Field).
 Polarization charges : Total charges.
 Charge compensation  : None.
 Solution method      : On-the-fly selection.
 Cavity type          : Scaled VdW (van der Waals Surface) (Alpha=1.100).
 Cavity algorithm     : GePol (No added spheres)
                        Default sphere list used, NSphG=    8.
                        Lebedev-Laikov grids with approx.  5.0 points / Ang**2.
                        Smoothing algorithm: York/Karplus (Gamma=1.0000).
                        Polarization charges: spherical gaussians, with
                                              point-specific exponents (IZeta= 3).
                        Self-potential: point-specific (ISelfS= 7).
                        Self-field    : sphere-specific E.n sum rule (ISelfD= 2).
 1st derivatives      : Analytical E(r).r(x)/FMM algorithm (CHGder, D1EAlg=3).
                        Cavity 1st derivative terms included.
 Solvent              : Water, Eps=  78.355300 Eps(inf)=   1.777849
 ------------------------------------------------------------------------------
 Spheres list:
 ISph  on   Nord     Re0    Alpha      Xe            Ye            Ze
    1   O      1    1.7500  1.100     -1.888227      1.709673      0.082029
    2   O      2    1.7500  1.100     -4.076752      0.510902     -0.115369
    3   O      3    1.7500  1.100     -3.228849     -1.567954      0.053131
    4   O      4    1.7500  1.100     -0.675097     -0.427815      0.043570
    5   C      5    1.9255  1.100     -1.689805      0.274588     -0.046443
    6   C      6    1.9255  1.100     -3.067061     -0.332927     -0.088739
    7  Ba      7    1.8515  1.100      2.006583     -0.027836     -0.003986
    8   H      8    1.4430  1.100     -4.876031      0.110380      0.527433
 ------------------------------------------------------------------------------
 One-electron integrals computed using PRISM.
 PrsmSu:  requested number of processors reduced to:  30 ShMem   1 Linda.
   1 Symmetry operations used in ECPInt.
 ECPInt:  NShTT=    1176 NPrTT=    4561 LenC2=    1169 LenP2D=    3701.
 LDataN:  DoStor=T MaxTD1= 6 Len=  172
 Number of processors reduced to  26 by ecpmxn.
 NBasis=   112 RedAO= T EigKep=  3.66D-03  NBF=   112
 NBsUse=   112 1.00D-06 EigRej= -1.00D+00 NBFU=   112
 Defaulting to unpruned grid for atomic number  56.
 ExpMin= 1.81D-02 ExpMax= 2.27D+03 ExpMxC= 3.41D+02 IAcc=3 IRadAn=         5 AccDes= 0.00D+00
 Harris functional with IExCor= 1009 and IRadAn=       5 diagonalized for initial guess.
 HarFok:  IExCor= 1009 AccDes= 0.00D+00 IRadAn=         5 IDoV= 1 UseB2=F ITyADJ=14
 ICtDFT=  3500011 ScaDFX=  1.000000  1.000000  1.000000  1.000000
 Defaulting to unpruned grid for atomic number  56.
 FoFCou: FMM=F IPFlag=           0 FMFlag=      100000 FMFlg1=           0
         NFxFlg=           0 DoJE=T BraDBF=F KetDBF=T FulRan=T
         wScrn=  0.000000 ICntrl=       500 IOpCl=  0 I1Cent=   200000004 NGrid=           0
         NMat0=    1 NMatS0=      1 NMatT0=    0 NMatD0=    1 NMtDS0=    0 NMtDT0=    0
 Petite list used in FoFCou.
 Initial guess <Sx>= 0.0000 <Sy>= 0.0000 <Sz>= 0.5000 <S**2>= 0.7500 S= 0.5000
 Keep R1 and R2 ints in memory in canonical form, NReq=86443235.
 Requested convergence on RMS density matrix=1.00D-08 within 128 cycles.
 Requested convergence on MAX density matrix=1.00D-06.
 Requested convergence on             energy=1.00D-06.
 No special actions if energy rises.
 Defaulting to unpruned grid for atomic number  56.
 Defaulting to unpruned grid for atomic number  56.
 Defaulting to unpruned grid for atomic number  56.
 Defaulting to unpruned grid for atomic number  56.
 Defaulting to unpruned grid for atomic number  56.
 Defaulting to unpruned grid for atomic number  56.
 Defaulting to unpruned grid for atomic number  56.
 Defaulting to unpruned grid for atomic number  56.
 Defaulting to unpruned grid for atomic number  56.
 Defaulting to unpruned grid for atomic number  56.
 Defaulting to unpruned grid for atomic number  56.
 Defaulting to unpruned grid for atomic number  56.
 Defaulting to unpruned grid for atomic number  56.
 Defaulting to unpruned grid for atomic number  56.
 Defaulting to unpruned grid for atomic number  56.
 Defaulting to unpruned grid for atomic number  56.
 Defaulting to unpruned grid for atomic number  56.
 Defaulting to unpruned grid for atomic number  56.
 Defaulting to unpruned grid for atomic number  56.
 Defaulting to unpruned grid for atomic number  56.
 Defaulting to unpruned grid for atomic number  56.
 Defaulting to unpruned grid for atomic number  56.
 Defaulting to unpruned grid for atomic number  56.
 Defaulting to unpruned grid for atomic number  56.
 Defaulting to unpruned grid for atomic number  56.
 Defaulting to unpruned grid for atomic number  56.
 Defaulting to unpruned grid for atomic number  56.
 Defaulting to unpruned grid for atomic number  56.
 Defaulting to unpruned grid for atomic number  56.
 Defaulting to unpruned grid for atomic number  56.
 Defaulting to unpruned grid for atomic number  56.
 Defaulting to unpruned grid for atomic number  56.
 Defaulting to unpruned grid for atomic number  56.
 Defaulting to unpruned grid for atomic number  56.
 Defaulting to unpruned grid for atomic number  56.
 Defaulting to unpruned grid for atomic number  56.
 Defaulting to unpruned grid for atomic number  56.
 Defaulting to unpruned grid for atomic number  56.
 Defaulting to unpruned grid for atomic number  56.
 Defaulting to unpruned grid for atomic number  56.
 Defaulting to unpruned grid for atomic number  56.
 Defaulting to unpruned grid for atomic number  56.
 Defaulting to unpruned grid for atomic number  56.
 Defaulting to unpruned grid for atomic number  56.
 Defaulting to unpruned grid for atomic number  56.
 Defaulting to unpruned grid for atomic number  56.
 Defaulting to unpruned grid for atomic number  56.
 Defaulting to unpruned grid for atomic number  56.
 Defaulting to unpruned grid for atomic number  56.
 CoulSu:  requested number of processors reduced to:  29 ShMem   1 Linda.
 Inv3:  Mode=1 IEnd=     3953712.
 Iteration    1 A*A^-1 deviation from unit magnitude is 3.33D-15 for    363.
 Iteration    1 A*A^-1 deviation from orthogonality  is 1.59D-15 for    459      6.
 Iteration    1 A^-1*A deviation from unit magnitude is 3.55D-15 for    962.
 Iteration    1 A^-1*A deviation from orthogonality  is 5.50D-15 for    484    459.
 CoulSu:  requested number of processors reduced to:  29 ShMem   1 Linda.
 CoulSu:  requested number of processors reduced to:  29 ShMem   1 Linda.
 CoulSu:  requested number of processors reduced to:  30 ShMem   1 Linda.
 CoulSu:  requested number of processors reduced to:  28 ShMem   1 Linda.
 Error on total polarization charges =  0.01701
 SCF Done:  E(UM062X) =  -402.774374517     A.U. after   18 cycles
            NFock= 18  Conv=0.48D-08     -V/T= 2.0559
 <Sx>= 0.0000 <Sy>= 0.0000 <Sz>= 0.5000 <S**2>= 0.7552 S= 0.5026
 <L.S>=  0.00000000000    
 Annihilation of the first spin contaminant:
 S**2 before annihilation     0.7552,   after     0.7500

 **********************************************************************

            Population analysis using the SCF density.

 **********************************************************************

 Orbital symmetries:
 Alpha Orbitals:
       Occupied  (A) (A) (A) (A) (A) (A) (A) (A) (A) (A) (A) (A)
                 (A) (A) (A) (A) (A) (A) (A) (A) (A) (A) (A) (A)
                 (A) (A) (A) (A)
       Virtual   (A) (A) (A) (A) (A) (A) (A) (A) (A) (A) (A) (A)
                 (A) (A) (A) (A) (A) (A) (A) (A) (A) (A) (A) (A)
                 (A) (A) (A) (A) (A) (A) (A) (A) (A) (A) (A) (A)
                 (A) (A) (A) (A) (A) (A) (A) (A) (A) (A) (A) (A)
                 (A) (A) (A) (A) (A) (A) (A) (A) (A) (A) (A) (A)
                 (A) (A) (A) (A) (A) (A) (A) (A) (A) (A) (A) (A)
                 (A) (A) (A) (A) (A) (A) (A) (A) (A) (A) (A) (A)
 Beta  Orbitals:
       Occupied  (A) (A) (A) (A) (A) (A) (A) (A) (A) (A) (A) (A)
                 (A) (A) (A) (A) (A) (A) (A) (A) (A) (A) (A) (A)
                 (A) (A) (A)
       Virtual   (A) (A) (A) (A) (A) (A) (A) (A) (A) (A) (A) (A)
                 (A) (A) (A) (A) (A) (A) (A) (A) (A) (A) (A) (A)
                 (A) (A) (A) (A) (A) (A) (A) (A) (A) (A) (A) (A)
                 (A) (A) (A) (A) (A) (A) (A) (A) (A) (A) (A) (A)
                 (A) (A) (A) (A) (A) (A) (A) (A) (A) (A) (A) (A)
                 (A) (A) (A) (A) (A) (A) (A) (A) (A) (A) (A) (A)
                 (A) (A) (A) (A) (A) (A) (A) (A) (A) (A) (A) (A)
                 (A)
 The electronic state is 2-A.
 Alpha  occ. eigenvalues --  -19.60726 -19.54971 -19.52018 -19.49020 -10.57169
 Alpha  occ. eigenvalues --  -10.56745  -1.35002  -1.12791  -1.07214  -1.01205
 Alpha  occ. eigenvalues --   -0.91392  -0.73119  -0.73000  -0.72985  -0.66700
 Alpha  occ. eigenvalues --   -0.56153  -0.49476  -0.48651  -0.46550  -0.41780
 Alpha  occ. eigenvalues --   -0.40748  -0.38370  -0.33524  -0.29779  -0.26810
 Alpha  occ. eigenvalues --   -0.26149  -0.22320  -0.09698
 Alpha virt. eigenvalues --   -0.00532   0.04267   0.04467   0.05195   0.06127
 Alpha virt. eigenvalues --    0.06174   0.07461   0.07723   0.08717   0.10882
 Alpha virt. eigenvalues --    0.11852   0.15026   0.15125   0.15239   0.15443
 Alpha virt. eigenvalues --    0.17384   0.19814   0.33381   0.35418   0.40479
 Alpha virt. eigenvalues --    0.49383   0.55056   0.57613   0.59457   0.63884
 Alpha virt. eigenvalues --    0.66587   0.68917   0.70958   0.75738   0.76079
 Alpha virt. eigenvalues --    0.80269   1.02082   1.03110   1.04383   1.07209
 Alpha virt. eigenvalues --    1.10361   1.12645   1.15557   1.16883   1.20550
 Alpha virt. eigenvalues --    1.21363   1.25995   1.28829   1.31024   1.38227
 Alpha virt. eigenvalues --    1.39220   1.49022   1.56160   1.61425   1.64146
 Alpha virt. eigenvalues --    1.69988   1.74089   1.77078   1.83611   1.86014
 Alpha virt. eigenvalues --    1.89226   1.97201   2.04002   2.13227   2.17594
 Alpha virt. eigenvalues --    2.22608   2.44325   2.45761   2.78692   2.80192
 Alpha virt. eigenvalues --    2.82083   2.85304   2.86116   2.90006   2.93652
 Alpha virt. eigenvalues --    2.98910   3.00946   3.10186   3.21316   3.22358
 Alpha virt. eigenvalues --    3.25509   3.30456   3.38447   3.50450   3.63751
 Alpha virt. eigenvalues --    3.68545   3.80363   3.81369  83.07134
  Beta  occ. eigenvalues --  -19.60611 -19.54741 -19.51499 -19.48657 -10.57040
  Beta  occ. eigenvalues --  -10.56549  -1.34993  -1.12172  -1.06557  -0.99968
  Beta  occ. eigenvalues --   -0.90282  -0.73072  -0.72987  -0.72976  -0.65275
  Beta  occ. eigenvalues --   -0.55360  -0.48627  -0.47624  -0.44858  -0.40682
  Beta  occ. eigenvalues --   -0.39532  -0.37218  -0.29958  -0.28846  -0.25572
  Beta  occ. eigenvalues --   -0.22982  -0.21668
  Beta virt. eigenvalues --   -0.00864   0.03670   0.04248   0.04552   0.05595
  Beta virt. eigenvalues --    0.05674   0.05899   0.07393   0.07859   0.08839
  Beta virt. eigenvalues --    0.11049   0.11666   0.14906   0.14985   0.15139
  Beta virt. eigenvalues --    0.15416   0.17336   0.23726   0.33903   0.36156
  Beta virt. eigenvalues --    0.41331   0.50438   0.55291   0.57735   0.61074
  Beta virt. eigenvalues --    0.64065   0.66753   0.69661   0.71886   0.76717
  Beta virt. eigenvalues --    0.77025   0.81318   1.02424   1.03530   1.05220
  Beta virt. eigenvalues --    1.07867   1.10826   1.13009   1.15798   1.17686
  Beta virt. eigenvalues --    1.21271   1.22319   1.26153   1.29247   1.31820
  Beta virt. eigenvalues --    1.38619   1.39502   1.50609   1.57370   1.62240
  Beta virt. eigenvalues --    1.64262   1.71412   1.74391   1.77507   1.85203
  Beta virt. eigenvalues --    1.86553   1.89868   1.98504   2.04349   2.15261
  Beta virt. eigenvalues --    2.19713   2.23961   2.45483   2.49041   2.79503
  Beta virt. eigenvalues --    2.81591   2.82918   2.86330   2.87088   2.90950
  Beta virt. eigenvalues --    2.93970   2.99636   3.01745   3.11406   3.21947
  Beta virt. eigenvalues --    3.23523   3.26079   3.31501   3.39602   3.51098
  Beta virt. eigenvalues --    3.64300   3.69310   3.81445   3.82235  83.07118
          Condensed to atoms (all electrons):
               1          2          3          4          5          6
     1  O    8.449055  -0.002478   0.002143  -0.049642   0.408380  -0.117593
     2  O   -0.002478   7.947376  -0.088546   0.001090  -0.127563   0.343001
     3  O    0.002143  -0.088546   8.105924   0.002642  -0.108973   0.577764
     4  O   -0.049642   0.001090   0.002642   8.105806   0.454785  -0.104382
     5  C    0.408380  -0.127563  -0.108973   0.454785   5.005035   0.240994
     6  C   -0.117593   0.343001   0.577764  -0.104382   0.240994   5.066014
     7  Ba   0.040957   0.003210   0.007259   0.106257  -0.036508   0.020576
     8  H    0.000214   0.247194   0.009418  -0.000102   0.011422  -0.034991
               7          8
     1  O    0.040957   0.000214
     2  O    0.003210   0.247194
     3  O    0.007259   0.009418
     4  O    0.106257  -0.000102
     5  C   -0.036508   0.011422
     6  C    0.020576  -0.034991
     7  Ba   8.145141   0.000983
     8  H    0.000983   0.560623
          Atomic-Atomic Spin Densities.
               1          2          3          4          5          6
     1  O    0.208458   0.002182   0.000244   0.004422  -0.064891  -0.013541
     2  O    0.002182   0.079552   0.005269   0.000090  -0.005815  -0.042064
     3  O    0.000244   0.005269   0.348205   0.002158  -0.014856  -0.132968
     4  O    0.004422   0.000090   0.002158   0.155337  -0.067414  -0.012845
     5  C   -0.064891  -0.005815  -0.014856  -0.067414   0.248857   0.122245
     6  C   -0.013541  -0.042064  -0.132968  -0.012845   0.122245   0.397472
     7  Ba   0.002195  -0.000240   0.001653   0.007686  -0.012011  -0.004347
     8  H    0.000836  -0.019822   0.005576   0.000084  -0.006200  -0.016667
               7          8
     1  O    0.002195   0.000836
     2  O   -0.000240  -0.019822
     3  O    0.001653   0.005576
     4  O    0.007686   0.000084
     5  C   -0.012011  -0.006200
     6  C   -0.004347  -0.016667
     7  Ba   0.013979   0.001211
     8  H    0.001211   0.063802
 Mulliken charges and spin densities:
               1          2
     1  O   -0.731037   0.139905
     2  O   -0.323285   0.019152
     3  O   -0.507630   0.215281
     4  O   -0.516454   0.089518
     5  C    0.152427   0.199914
     6  C    0.008617   0.297285
     7  Ba   1.712124   0.010126
     8  H    0.205239   0.028819
 Sum of Mulliken charges =  -0.00000   1.00000
 Mulliken charges and spin densities with hydrogens summed into heavy atoms:
               1          2
     1  O   -0.731037   0.139905
     2  O   -0.118046   0.047971
     3  O   -0.507630   0.215281
     4  O   -0.516454   0.089518
     5  C    0.152427   0.199914
     6  C    0.008617   0.297285
     7  Ba   1.712124   0.010126
 Electronic spatial extent (au):  <R**2>=           1682.3619
 Charge=             -0.0000 electrons
 Dipole moment (field-independent basis, Debye):
    X=             34.4780    Y=             -1.8040    Z=              0.4389  Tot=             34.5279
 Quadrupole moment (field-independent basis, Debye-Ang):
   XX=            -51.4604   YY=            -73.8641   ZZ=            -50.8848
   XY=             -0.4066   XZ=             -4.5602   YZ=              0.0191
 Traceless Quadrupole moment (field-independent basis, Debye-Ang):
   XX=              7.2760   YY=            -15.1277   ZZ=              7.8516
   XY=             -0.4066   XZ=             -4.5602   YZ=              0.0191
 Octapole moment (field-independent basis, Debye-Ang**2):
  XXX=            324.1972  YYY=            -12.4336  ZZZ=              0.2272  XYY=            111.4897
  XXY=              7.6753  XXZ=             24.1838  XZZ=             55.7796  YZZ=             -1.7553
  YYZ=             -1.6021  XYZ=             -1.1881
 Hexadecapole moment (field-independent basis, Debye-Ang**3):
 XXXX=          -1932.3249 YYYY=           -340.8572 ZZZZ=            -56.8955 XXXY=            -55.5648
 XXXZ=           -124.4226 YYYX=            -11.1175 YYYZ=             -1.0078 ZZZX=             -5.1400
 ZZZY=             -0.3455 XXYY=           -522.8348 XXZZ=           -329.0775 YYZZ=            -56.9622
 XXYZ=              6.5030 YYXZ=              2.2915 ZZXY=             -1.2138
 N-N= 2.725431469432D+02 E-N=-1.490829671055D+03  KE= 3.814586838429D+02
                          Isotropic Fermi Contact Couplings
        Atom                 a.u.       MegaHertz       Gauss      10(-4) cm-1
     1  O(17)              0.06663     -40.38812     -14.41149     -13.47203
     2  O(17)              0.05301     -32.13158     -11.46535     -10.71794
     3  O(17)              0.08343     -50.57650     -18.04695     -16.87050
     4  O(17)              0.03200     -19.39991      -6.92237      -6.47111
     5  C(13)              0.02287      25.70494       9.17216       8.57424
     6  C(13)              0.03687      41.44479      14.78853      13.82449
     7  Ba(135            -0.00000      -0.00002      -0.00001      -0.00001
     8  H(1)               0.00810      36.18903      12.91315      12.07136
 --------------------------------------------------------
       Center         ----  Spin Dipole Couplings  ----
                      3XX-RR        3YY-RR        3ZZ-RR
 --------------------------------------------------------
     1   Atom       -0.288001     -0.331118      0.619119
     2   Atom       -0.002602     -0.068071      0.070673
     3   Atom       -0.443571     -0.462479      0.906050
     4   Atom       -0.200856     -0.214067      0.414923
     5   Atom       -0.104502     -0.123855      0.228356
     6   Atom       -0.173141     -0.171701      0.344842
     7   Atom        0.003819     -0.002160     -0.001659
     8   Atom        0.009192     -0.004888     -0.004304
 --------------------------------------------------------
                        XY            XZ            YZ
 --------------------------------------------------------
     1   Atom        0.027772     -0.114204     -0.157141
     2   Atom        0.058993      0.153005      0.088147
     3   Atom        0.018214      0.141357      0.227585
     4   Atom        0.014644     -0.115789     -0.056732
     5   Atom        0.016613     -0.097538     -0.058744
     6   Atom        0.015757      0.059164      0.041148
     7   Atom        0.000327      0.000113     -0.000028
     8   Atom       -0.001160     -0.006325      0.000841
 --------------------------------------------------------


 ---------------------------------------------------------------------------------
              Anisotropic Spin Dipole Couplings in Principal Axis System
 ---------------------------------------------------------------------------------

       Atom             a.u.   MegaHertz   Gauss  10(-4) cm-1        Axes

              Baa    -0.3580    25.901     9.242     8.640 -0.1623  0.9770  0.1382
     1 O(17)  Bbb    -0.3010    21.778     7.771     7.265  0.9791  0.1421  0.1458
              Bcc     0.6589   -47.680   -17.013   -15.904 -0.1228 -0.1589  0.9796
 
              Baa    -0.1263     9.137     3.260     3.048 -0.6648 -0.3364  0.6670
     2 O(17)  Bbb    -0.1028     7.435     2.653     2.480 -0.4742  0.8799 -0.0288
              Bcc     0.2290   -16.572    -5.913    -5.528  0.5772  0.3355  0.7445
 
              Baa    -0.4998    36.168    12.906    12.064  0.1087  0.9795 -0.1695
     3 O(17)  Bbb    -0.4576    33.108    11.814    11.044  0.9889 -0.1239 -0.0818
              Bcc     0.9574   -69.276   -24.719   -23.108  0.1012  0.1587  0.9821
 
              Baa    -0.2250    16.283     5.810     5.432  0.8014 -0.5909  0.0926
     4 O(17)  Bbb    -0.2162    15.641     5.581     5.217  0.5708  0.8018  0.1768
              Bcc     0.4412   -31.924   -11.391   -10.649 -0.1787 -0.0888  0.9799
 
              Baa    -0.1336   -17.929    -6.397    -5.980 -0.2666  0.9601  0.0840
     5 C(13)  Bbb    -0.1308   -17.555    -6.264    -5.856  0.9283  0.2324  0.2901
              Bcc     0.2644    35.484    12.662    11.836 -0.2590 -0.1553  0.9533
 
              Baa    -0.1887   -25.327    -9.037    -8.448  0.7775 -0.6277 -0.0378
     6 C(13)  Bbb    -0.1662   -22.306    -7.960    -7.441  0.6186  0.7742 -0.1339
              Bcc     0.3550    47.634    16.997    15.889  0.1133  0.0808  0.9903
 
              Baa    -0.0022    -0.116    -0.042    -0.039 -0.0556  0.9963  0.0655
     7 Ba(135 Bbb    -0.0017    -0.089    -0.032    -0.030 -0.0166 -0.0665  0.9976
              Bcc     0.0038     0.205     0.073     0.068  0.9983  0.0544  0.0202
 
              Baa    -0.0069    -3.667    -1.308    -1.223  0.3483 -0.1858  0.9188
     8 H(1)   Bbb    -0.0049    -2.634    -0.940    -0.879  0.1445  0.9791  0.1432
              Bcc     0.0118     6.300     2.248     2.102  0.9262 -0.0829 -0.3679
 

 ---------------------------------------------------------------------------------

 PrsmSu:  requested number of processors reduced to:  22 ShMem   1 Linda.
   1 Symmetry operations used in ECPInt.
 ECPInt:  NShTT=    1176 NPrTT=    4561 LenC2=    1169 LenP2D=    3701.
 LDataN:  DoStor=T MaxTD1= 7 Len=  274
 Number of processors reduced to  24 by ecpmxn.
 D1PCM: PCM CHGder 1st derivatives, ID1Alg=3 FixD1E=F DoIter=F DoCFld=F I1PDM=0.
 CoulSu:  requested number of processors reduced to:  48 ShMem   1 Linda.
 CoulSu:  requested number of processors reduced to:  48 ShMem   1 Linda.
 CoulSu:  requested number of processors reduced to:  29 ShMem   1 Linda.
 CoulSu:  requested number of processors reduced to:  30 ShMem   1 Linda.
 Calling FoFJK, ICntrl=      2127 FMM=F ISym2X=0 I1Cent= 0 IOpClX= 1 NMat=1 NMatS=1 NMatT=0.
 Defaulting to unpruned grid for atomic number  56.
 Defaulting to unpruned grid for atomic number  56.
 Defaulting to unpruned grid for atomic number  56.
 Defaulting to unpruned grid for atomic number  56.
 Defaulting to unpruned grid for atomic number  56.
 Defaulting to unpruned grid for atomic number  56.
 Defaulting to unpruned grid for atomic number  56.
 Defaulting to unpruned grid for atomic number  56.
 Defaulting to unpruned grid for atomic number  56.
 Defaulting to unpruned grid for atomic number  56.
 Defaulting to unpruned grid for atomic number  56.
 Defaulting to unpruned grid for atomic number  56.
 Defaulting to unpruned grid for atomic number  56.
 Defaulting to unpruned grid for atomic number  56.
 Defaulting to unpruned grid for atomic number  56.
 Defaulting to unpruned grid for atomic number  56.
 Defaulting to unpruned grid for atomic number  56.
 Defaulting to unpruned grid for atomic number  56.
 Defaulting to unpruned grid for atomic number  56.
 Defaulting to unpruned grid for atomic number  56.
 Defaulting to unpruned grid for atomic number  56.
 Defaulting to unpruned grid for atomic number  56.
 Defaulting to unpruned grid for atomic number  56.
 Defaulting to unpruned grid for atomic number  56.
 Defaulting to unpruned grid for atomic number  56.
 Defaulting to unpruned grid for atomic number  56.
 Defaulting to unpruned grid for atomic number  56.
 Defaulting to unpruned grid for atomic number  56.
 Defaulting to unpruned grid for atomic number  56.
 Defaulting to unpruned grid for atomic number  56.
 Defaulting to unpruned grid for atomic number  56.
 Defaulting to unpruned grid for atomic number  56.
 Defaulting to unpruned grid for atomic number  56.
 Defaulting to unpruned grid for atomic number  56.
 Defaulting to unpruned grid for atomic number  56.
 Defaulting to unpruned grid for atomic number  56.
 Defaulting to unpruned grid for atomic number  56.
 Defaulting to unpruned grid for atomic number  56.
 Defaulting to unpruned grid for atomic number  56.
 Defaulting to unpruned grid for atomic number  56.
 Defaulting to unpruned grid for atomic number  56.
 Defaulting to unpruned grid for atomic number  56.
 Defaulting to unpruned grid for atomic number  56.
 Defaulting to unpruned grid for atomic number  56.
 Defaulting to unpruned grid for atomic number  56.
 Defaulting to unpruned grid for atomic number  56.
 Defaulting to unpruned grid for atomic number  56.
 Defaulting to unpruned grid for atomic number  56.
 Defaulting to unpruned grid for atomic number  56.
 ***** Axes restored to original set *****
 -------------------------------------------------------------------
 Center     Atomic                   Forces (Hartrees/Bohr)
 Number     Number              X              Y              Z
 -------------------------------------------------------------------
      1        8           0.091501934    0.012225969    0.057456179
      2        8          -0.067540331   -0.091815381    0.011013143
      3        8           0.005519014   -0.020542794    0.005806347
      4        8           0.030342813    0.048210500    0.017179798
      5        6          -0.136982113   -0.067919295   -0.085903753
      6        6           0.045479926    0.070869798    0.037424379
      7       56          -0.004537358   -0.011732177   -0.002119502
      8        1           0.036216116    0.060703379   -0.040856591
 -------------------------------------------------------------------
 Cartesian Forces:  Max     0.136982113 RMS     0.055916313

 GradGradGradGradGradGradGradGradGradGradGradGradGradGradGradGradGradGrad
 Berny optimization.
 FormGI is forming the generalized inverse of G from B-inverse, IUseBI=4.
 Internal  Forces:  Max     0.100261944 RMS     0.036011701
 Search for a local minimum.
 Step number   1 out of a maximum of   10
 All quantities printed in internal units (Hartrees-Bohrs-Radians)
 Mixed Optimization -- RFO/linear search
 Second derivative matrix not updated -- first step.
 ITU=  0
     Eigenvalues ---    0.00688   0.01493   0.02239   0.02801   0.03843
     Eigenvalues ---    0.04390   0.16000   0.24819   0.24883   0.25000
     Eigenvalues ---    0.25000   0.25000   0.31767   0.33559   0.37671
     Eigenvalues ---    0.62902   0.81909   0.88080
 RFO step:  Lambda=-7.29077976D-02 EMin= 6.88053782D-03
 Linear search not attempted -- first point.
 Maximum step size (   0.300) exceeded in Quadratic search.
    -- Step size scaled by   0.700
 Iteration  1 RMS(Cart)=  0.09281413 RMS(Int)=  0.00631069
 Iteration  2 RMS(Cart)=  0.00688397 RMS(Int)=  0.00145995
 Iteration  3 RMS(Cart)=  0.00003691 RMS(Int)=  0.00145967
 Iteration  4 RMS(Cart)=  0.00000009 RMS(Int)=  0.00145967
 Variable       Old X    -DE/DX   Delta X   Delta X   Delta X     New X
                                 (Linear)    (Quad)   (Total)
    R1        2.74846  -0.10026   0.00000  -0.15609  -0.15609   2.59237
    R2        2.48715   0.05230   0.00000   0.05216   0.05216   2.53931
    R3        2.08081  -0.08138   0.00000  -0.13944  -0.13944   1.94137
    R4        2.36902   0.01727   0.00000   0.01355   0.01355   2.38258
    R5        2.33831   0.04404   0.00000   0.03232   0.03232   2.37063
    R6        5.12449  -0.01262   0.00000  -0.07563  -0.07563   5.04886
    R7        2.84572  -0.01915   0.00000  -0.03432  -0.03432   2.81140
    A1        1.88793  -0.01020   0.00000  -0.03066  -0.03066   1.85727
    A2        2.38321  -0.00912   0.00000  -0.01976  -0.01976   2.36344
    A3        2.29904  -0.05253   0.00000  -0.11161  -0.11272   2.18632
    A4        1.85019   0.06071   0.00000   0.13456   0.13387   1.98406
    A5        2.12120  -0.00655   0.00000  -0.01143  -0.01227   2.10893
    A6        2.13519  -0.02087   0.00000  -0.04375  -0.04421   2.09099
    A7        2.03035   0.01019   0.00000   0.02362   0.02320   2.05355
    A8        2.10865   0.01158   0.00000   0.02667   0.02629   2.13494
    D1        0.54879   0.00018   0.00000  -0.00024  -0.00100   0.54779
    D2       -2.45001  -0.00804   0.00000  -0.05433  -0.05357  -2.50358
    D3       -0.28749   0.01029   0.00000   0.05566   0.05200  -0.23550
    D4        3.05058  -0.00900   0.00000  -0.04756  -0.04390   3.00668
    D5        0.09265   0.00018   0.00000  -0.00513  -0.00684   0.08581
    D6       -2.90849  -0.00506   0.00000  -0.05216  -0.05465  -2.96313
    D7        3.08208   0.00518   0.00000   0.05321   0.05569   3.13776
    D8        0.08094  -0.00006   0.00000   0.00618   0.00788   0.08882
         Item               Value     Threshold  Converged?
 Maximum Force            0.100262     0.000450     NO 
 RMS     Force            0.036012     0.000300     NO 
 Maximum Displacement     0.234812     0.001800     NO 
 RMS     Displacement     0.090115     0.001200     NO 
 Predicted change in Energy=-3.692969D-02
 GradGradGradGradGradGradGradGradGradGradGradGradGradGradGradGradGradGrad

                          Input orientation:                          
 ---------------------------------------------------------------------
 Center     Atomic      Atomic             Coordinates (Angstroms)
 Number     Number       Type             X           Y           Z
 ---------------------------------------------------------------------
      1          8           0       -0.773667    2.279377    1.485927
      2          8           0       -0.701915   -0.384037    1.557186
      3          8           0        0.926226   -0.396839    3.115538
      4          8           0        1.048552    2.401321    2.937671
      5          6           0        0.229727    1.742913    2.252289
      6          6           0        0.204334    0.256712    2.314680
      7         56           0        1.770275    4.969129    3.091533
      8          1           0       -1.019563   -1.192326    2.105976
 ---------------------------------------------------------------------
                    Distance matrix (angstroms):
                    1          2          3          4          5
     1  O    0.000000
     2  O    2.665334   0.000000
     3  O    3.564744   2.253767   0.000000
     4  O    2.333005   3.567645   2.806475   0.000000
     5  C    1.371825   2.423849   2.410155   1.254481   0.000000
     6  C    2.394680   1.343743   1.260805   2.387503   1.487727
     7  Ba   4.035390   6.092810   5.431998   2.671740   3.672340
     8  H    3.535202   1.027327   2.331975   4.228843   3.193394
                    6          7          8
     6  C    0.000000
     7  Ba   5.026185   0.000000
     8  H    1.908191   6.835060   0.000000
 Stoichiometry    C2HBaO4(2)
 Framework group  C1[X(C2HBaO4)]
 Deg. of freedom    18
 Full point group                 C1      NOp   1
 Largest Abelian subgroup         C1      NOp   1
 Largest concise Abelian subgroup C1      NOp   1
                         Standard orientation:                         
 ---------------------------------------------------------------------
 Center     Atomic      Atomic             Coordinates (Angstroms)
 Number     Number       Type             X           Y           Z
 ---------------------------------------------------------------------
      1          8           0       -1.682307    1.665517    0.091356
      2          8           0       -4.088231    0.543109   -0.144725
      3          8           0       -3.244182   -1.538439    0.040217
      4          8           0       -0.664623   -0.433813    0.084667
      5          6           0       -1.681712    0.296332    0.006292
      6          6           0       -3.043452   -0.298337   -0.066939
      7         56           0        1.975552   -0.035653   -0.010938
      8          1           0       -4.845164    0.117591    0.404263
 ---------------------------------------------------------------------
 Rotational constants (GHZ):           5.4283717           0.4275704           0.3968745
 Standard basis: def2SVP (5D, 7F)
 There are   120 symmetry adapted cartesian basis functions of A   symmetry.
 There are   112 symmetry adapted basis functions of A   symmetry.
   112 basis functions,   211 primitive gaussians,   120 cartesian basis functions
    28 alpha electrons       27 beta electrons
       nuclear repulsion energy       273.8011307295 Hartrees.
 NAtoms=    8 NActive=    8 NUniq=    8 SFac= 1.00D+00 NAtFMM=   60 NAOKFM=F Big=F
 Integral buffers will be    131072 words long.
 Raffenetti 2 integral format.
 Two-electron integral symmetry is turned on.
 ------------------------------------------------------------------------------
 Polarizable Continuum Model (PCM)
 =================================
 Model                : PCM.
 Atomic radii         : UFF (Universal Force Field).
 Polarization charges : Total charges.
 Charge compensation  : None.
 Solution method      : On-the-fly selection.
 Cavity type          : Scaled VdW (van der Waals Surface) (Alpha=1.100).
 Cavity algorithm     : GePol (No added spheres)
                        Default sphere list used, NSphG=    8.
                        Lebedev-Laikov grids with approx.  5.0 points / Ang**2.
                        Smoothing algorithm: York/Karplus (Gamma=1.0000).
                        Polarization charges: spherical gaussians, with
                                              point-specific exponents (IZeta= 3).
                        Self-potential: point-specific (ISelfS= 7).
                        Self-field    : sphere-specific E.n sum rule (ISelfD= 2).
 1st derivatives      : Analytical E(r).r(x)/FMM algorithm (CHGder, D1EAlg=3).
                        Cavity 1st derivative terms included.
 Solvent              : Water, Eps=  78.355300 Eps(inf)=   1.777849
 ------------------------------------------------------------------------------
 Spheres list:
 ISph  on   Nord     Re0    Alpha      Xe            Ye            Ze
    1   O      1    1.7500  1.100     -1.682307      1.665517      0.091356
    2   O      2    1.7500  1.100     -4.088231      0.543109     -0.144725
    3   O      3    1.7500  1.100     -3.244182     -1.538439      0.040217
    4   O      4    1.7500  1.100     -0.664623     -0.433813      0.084667
    5   C      5    1.9255  1.100     -1.681712      0.296332      0.006292
    6   C      6    1.9255  1.100     -3.043452     -0.298337     -0.066939
    7  Ba      7    1.8515  1.100      1.975552     -0.035653     -0.010938
    8   H      8    1.4430  1.100     -4.845164      0.117591      0.404263
 ------------------------------------------------------------------------------
 One-electron integrals computed using PRISM.
 PrsmSu:  requested number of processors reduced to:  30 ShMem   1 Linda.
   1 Symmetry operations used in ECPInt.
 ECPInt:  NShTT=    1176 NPrTT=    4561 LenC2=    1169 LenP2D=    3713.
 LDataN:  DoStor=T MaxTD1= 6 Len=  172
 Number of processors reduced to  26 by ecpmxn.
 NBasis=   112 RedAO= T EigKep=  3.23D-03  NBF=   112
 NBsUse=   112 1.00D-06 EigRej= -1.00D+00 NBFU=   112
 Defaulting to unpruned grid for atomic number  56.
 Initial guess from the checkpoint file:  "/home/zz1/proj/gauss/new/chk/Ba-SOSBOR03-2/32.chk"
 B after Tr=    -0.000000   -0.000000   -0.000000
         Rot=    0.999988   -0.001443   -0.000300    0.004763 Ang=  -0.57 deg.
 Initial guess <Sx>= 0.0000 <Sy>= 0.0000 <Sz>= 0.5000 <S**2>= 0.7551 S= 0.5025
 ExpMin= 1.81D-02 ExpMax= 2.27D+03 ExpMxC= 3.41D+02 IAcc=3 IRadAn=         5 AccDes= 0.00D+00
 Harris functional with IExCor= 1009 and IRadAn=       5 diagonalized for initial guess.
 HarFok:  IExCor= 1009 AccDes= 0.00D+00 IRadAn=         5 IDoV= 1 UseB2=F ITyADJ=14
 ICtDFT=  3500011 ScaDFX=  1.000000  1.000000  1.000000  1.000000
 Defaulting to unpruned grid for atomic number  56.
 FoFCou: FMM=F IPFlag=           0 FMFlag=      100000 FMFlg1=           0
         NFxFlg=           0 DoJE=T BraDBF=F KetDBF=T FulRan=T
         wScrn=  0.000000 ICntrl=       500 IOpCl=  0 I1Cent=   200000004 NGrid=           0
         NMat0=    1 NMatS0=      1 NMatT0=    0 NMatD0=    1 NMtDS0=    0 NMtDT0=    0
 Petite list used in FoFCou.
 Keep R1 and R2 ints in memory in canonical form, NReq=86443235.
 Requested convergence on RMS density matrix=1.00D-08 within 128 cycles.
 Requested convergence on MAX density matrix=1.00D-06.
 Requested convergence on             energy=1.00D-06.
 No special actions if energy rises.
 Defaulting to unpruned grid for atomic number  56.
 Defaulting to unpruned grid for atomic number  56.
 Defaulting to unpruned grid for atomic number  56.
 Defaulting to unpruned grid for atomic number  56.
 Defaulting to unpruned grid for atomic number  56.
 Defaulting to unpruned grid for atomic number  56.
 Defaulting to unpruned grid for atomic number  56.
 Defaulting to unpruned grid for atomic number  56.
 Defaulting to unpruned grid for atomic number  56.
 Defaulting to unpruned grid for atomic number  56.
 Defaulting to unpruned grid for atomic number  56.
 Defaulting to unpruned grid for atomic number  56.
 Defaulting to unpruned grid for atomic number  56.
 Defaulting to unpruned grid for atomic number  56.
 Defaulting to unpruned grid for atomic number  56.
 Defaulting to unpruned grid for atomic number  56.
 Defaulting to unpruned grid for atomic number  56.
 Defaulting to unpruned grid for atomic number  56.
 Defaulting to unpruned grid for atomic number  56.
 Defaulting to unpruned grid for atomic number  56.
 Defaulting to unpruned grid for atomic number  56.
 Defaulting to unpruned grid for atomic number  56.
 Defaulting to unpruned grid for atomic number  56.
 Defaulting to unpruned grid for atomic number  56.
 Defaulting to unpruned grid for atomic number  56.
 Defaulting to unpruned grid for atomic number  56.
 Defaulting to unpruned grid for atomic number  56.
 Defaulting to unpruned grid for atomic number  56.
 Defaulting to unpruned grid for atomic number  56.
 Defaulting to unpruned grid for atomic number  56.
 Defaulting to unpruned grid for atomic number  56.
 Defaulting to unpruned grid for atomic number  56.
 Defaulting to unpruned grid for atomic number  56.
 Defaulting to unpruned grid for atomic number  56.
 Defaulting to unpruned grid for atomic number  56.
 Defaulting to unpruned grid for atomic number  56.
 Defaulting to unpruned grid for atomic number  56.
 Defaulting to unpruned grid for atomic number  56.
 Defaulting to unpruned grid for atomic number  56.
 Defaulting to unpruned grid for atomic number  56.
 Defaulting to unpruned grid for atomic number  56.
 Defaulting to unpruned grid for atomic number  56.
 Defaulting to unpruned grid for atomic number  56.
 Defaulting to unpruned grid for atomic number  56.
 Defaulting to unpruned grid for atomic number  56.
 Defaulting to unpruned grid for atomic number  56.
 Defaulting to unpruned grid for atomic number  56.
 Defaulting to unpruned grid for atomic number  56.
 Defaulting to unpruned grid for atomic number  56.
 CoulSu:  requested number of processors reduced to:  29 ShMem   1 Linda.
 Inv3:  Mode=1 IEnd=     3974403.
 Iteration    1 A*A^-1 deviation from unit magnitude is 3.00D-15 for    738.
 Iteration    1 A*A^-1 deviation from orthogonality  is 1.55D-15 for    395    279.
 Iteration    1 A^-1*A deviation from unit magnitude is 3.11D-15 for    498.
 Iteration    1 A^-1*A deviation from orthogonality  is 1.68D-13 for    699    460.
 CoulSu:  requested number of processors reduced to:  29 ShMem   1 Linda.
 CoulSu:  requested number of processors reduced to:  29 ShMem   1 Linda.
 CoulSu:  requested number of processors reduced to:  30 ShMem   1 Linda.
 CoulSu:  requested number of processors reduced to:  28 ShMem   1 Linda.
 Error on total polarization charges =  0.01596
 SCF Done:  E(UM062X) =  -402.815535762     A.U. after   15 cycles
            NFock= 15  Conv=0.72D-08     -V/T= 2.0557
 <Sx>= 0.0000 <Sy>= 0.0000 <Sz>= 0.5000 <S**2>= 0.7552 S= 0.5026
 <L.S>=  0.00000000000    
 Annihilation of the first spin contaminant:
 S**2 before annihilation     0.7552,   after     0.7500

 **********************************************************************

            Population analysis using the SCF density.

 **********************************************************************

 Orbital symmetries:
 Alpha Orbitals:
       Occupied  (A) (A) (A) (A) (A) (A) (A) (A) (A) (A) (A) (A)
                 (A) (A) (A) (A) (A) (A) (A) (A) (A) (A) (A) (A)
                 (A) (A) (A) (A)
       Virtual   (A) (A) (A) (A) (A) (A) (A) (A) (A) (A) (A) (A)
                 (A) (A) (A) (A) (A) (A) (A) (A) (A) (A) (A) (A)
                 (A) (A) (A) (A) (A) (A) (A) (A) (A) (A) (A) (A)
                 (A) (A) (A) (A) (A) (A) (A) (A) (A) (A) (A) (A)
                 (A) (A) (A) (A) (A) (A) (A) (A) (A) (A) (A) (A)
                 (A) (A) (A) (A) (A) (A) (A) (A) (A) (A) (A) (A)
                 (A) (A) (A) (A) (A) (A) (A) (A) (A) (A) (A) (A)
 Beta  Orbitals:
       Occupied  (A) (A) (A) (A) (A) (A) (A) (A) (A) (A) (A) (A)
                 (A) (A) (A) (A) (A) (A) (A) (A) (A) (A) (A) (A)
                 (A) (A) (A)
       Virtual   (A) (A) (A) (A) (A) (A) (A) (A) (A) (A) (A) (A)
                 (A) (A) (A) (A) (A) (A) (A) (A) (A) (A) (A) (A)
                 (A) (A) (A) (A) (A) (A) (A) (A) (A) (A) (A) (A)
                 (A) (A) (A) (A) (A) (A) (A) (A) (A) (A) (A) (A)
                 (A) (A) (A) (A) (A) (A) (A) (A) (A) (A) (A) (A)
                 (A) (A) (A) (A) (A) (A) (A) (A) (A) (A) (A) (A)
                 (A) (A) (A) (A) (A) (A) (A) (A) (A) (A) (A) (A)
                 (A)
 The electronic state is 2-A.
 Alpha  occ. eigenvalues --  -19.60418 -19.53900 -19.52144 -19.49811 -10.57225
 Alpha  occ. eigenvalues --  -10.56745  -1.34760  -1.12751  -1.06568  -1.01109
 Alpha  occ. eigenvalues --   -0.94229  -0.72921  -0.72799  -0.72783  -0.67852
 Alpha  occ. eigenvalues --   -0.56395  -0.49675  -0.48251  -0.46536  -0.42339
 Alpha  occ. eigenvalues --   -0.40922  -0.38686  -0.33743  -0.29966  -0.27795
 Alpha  occ. eigenvalues --   -0.27047  -0.23609  -0.10308
 Alpha virt. eigenvalues --   -0.00489   0.04335   0.04544   0.05279   0.06228
 Alpha virt. eigenvalues --    0.06276   0.07711   0.07886   0.08689   0.12026
 Alpha virt. eigenvalues --    0.12854   0.15131   0.15193   0.15355   0.15506
 Alpha virt. eigenvalues --    0.17904   0.20473   0.33571   0.37947   0.39094
 Alpha virt. eigenvalues --    0.51754   0.56457   0.58508   0.59902   0.65681
 Alpha virt. eigenvalues --    0.66895   0.69128   0.70997   0.75479   0.77707
 Alpha virt. eigenvalues --    0.79339   1.03269   1.03921   1.05905   1.07797
 Alpha virt. eigenvalues --    1.10655   1.12847   1.15522   1.17795   1.19655
 Alpha virt. eigenvalues --    1.21110   1.26434   1.29617   1.30602   1.36903
 Alpha virt. eigenvalues --    1.37204   1.49158   1.55504   1.62144   1.62379
 Alpha virt. eigenvalues --    1.70286   1.77627   1.77960   1.83590   1.85782
 Alpha virt. eigenvalues --    1.89638   2.01309   2.11611   2.13738   2.21637
 Alpha virt. eigenvalues --    2.22920   2.44199   2.47133   2.78998   2.79974
 Alpha virt. eigenvalues --    2.82755   2.83804   2.86803   2.88553   2.96505
 Alpha virt. eigenvalues --    3.00645   3.04442   3.12338   3.20872   3.22743
 Alpha virt. eigenvalues --    3.27848   3.32150   3.43675   3.53030   3.65590
 Alpha virt. eigenvalues --    3.68681   3.78957   3.84298  83.07492
  Beta  occ. eigenvalues --  -19.60303 -19.53707 -19.51574 -19.49454 -10.57132
  Beta  occ. eigenvalues --  -10.56511  -1.34752  -1.12114  -1.05982  -0.99748
  Beta  occ. eigenvalues --   -0.93220  -0.72865  -0.72786  -0.72767  -0.66409
  Beta  occ. eigenvalues --   -0.55637  -0.48697  -0.47424  -0.44665  -0.41348
  Beta  occ. eigenvalues --   -0.39755  -0.37463  -0.29903  -0.28938  -0.26520
  Beta  occ. eigenvalues --   -0.24230  -0.22953
  Beta virt. eigenvalues --   -0.00821   0.03728   0.04283   0.04576   0.05702
  Beta virt. eigenvalues --    0.05754   0.05847   0.07633   0.08136   0.08761
  Beta virt. eigenvalues --    0.11833   0.12682   0.14997   0.15090   0.15200
  Beta virt. eigenvalues --    0.15446   0.17895   0.24661   0.34118   0.38738
  Beta virt. eigenvalues --    0.39882   0.52779   0.57166   0.59166   0.61251
  Beta virt. eigenvalues --    0.65647   0.66916   0.69849   0.71933   0.76351
  Beta virt. eigenvalues --    0.78500   0.80463   1.03720   1.04342   1.06805
  Beta virt. eigenvalues --    1.08314   1.11122   1.13249   1.15994   1.18483
  Beta virt. eigenvalues --    1.20809   1.21650   1.26558   1.30058   1.31409
  Beta virt. eigenvalues --    1.37115   1.37546   1.51068   1.56661   1.62169
  Beta virt. eigenvalues --    1.63416   1.71698   1.77977   1.78264   1.84727
  Beta virt. eigenvalues --    1.86192   1.90622   2.02778   2.12942   2.15850
  Beta virt. eigenvalues --    2.22776   2.24268   2.45828   2.50083   2.79698
  Beta virt. eigenvalues --    2.81499   2.83631   2.84847   2.87827   2.89430
  Beta virt. eigenvalues --    2.97086   3.00999   3.05343   3.13571   3.22186
  Beta virt. eigenvalues --    3.23522   3.28368   3.33297   3.44499   3.53879
  Beta virt. eigenvalues --    3.66326   3.69274   3.79996   3.85089  83.07482
          Condensed to atoms (all electrons):
               1          2          3          4          5          6
     1  O    8.341064   0.004599   0.001897  -0.074522   0.461976  -0.116316
     2  O    0.004599   7.923150  -0.091058   0.001076  -0.119577   0.329307
     3  O    0.001897  -0.091058   8.111950   0.002179  -0.105124   0.572069
     4  O   -0.074522   0.001076   0.002179   8.164477   0.457745  -0.113520
     5  C    0.461976  -0.119577  -0.105124   0.457745   4.960172   0.208447
     6  C   -0.116316   0.329307   0.572069  -0.113520   0.208447   5.131741
     7  Ba   0.048651   0.003059   0.007669   0.111896  -0.037046   0.017456
     8  H   -0.000459   0.278239   0.012270  -0.000159   0.012530  -0.032931
               7          8
     1  O    0.048651  -0.000459
     2  O    0.003059   0.278239
     3  O    0.007669   0.012270
     4  O    0.111896  -0.000159
     5  C   -0.037046   0.012530
     6  C    0.017456  -0.032931
     7  Ba   8.147797   0.000347
     8  H    0.000347   0.538246
          Atomic-Atomic Spin Densities.
               1          2          3          4          5          6
     1  O    0.215067   0.001455   0.000213   0.005607  -0.068178  -0.013346
     2  O    0.001455   0.075261   0.005949   0.000088  -0.005260  -0.045528
     3  O    0.000213   0.005949   0.380435   0.001845  -0.013114  -0.145814
     4  O    0.005607   0.000088   0.001845   0.130330  -0.055713  -0.013084
     5  C   -0.068178  -0.005260  -0.013114  -0.055713   0.201925   0.122755
     6  C   -0.013346  -0.045528  -0.145814  -0.013084   0.122755   0.449262
     7  Ba   0.002779   0.000035   0.001340   0.007554  -0.011094  -0.005393
     8  H    0.000491  -0.011420   0.004810   0.000047  -0.004739  -0.015180
               7          8
     1  O    0.002779   0.000491
     2  O    0.000035  -0.011420
     3  O    0.001340   0.004810
     4  O    0.007554   0.000047
     5  C   -0.011094  -0.004739
     6  C   -0.005393  -0.015180
     7  Ba   0.012613   0.000595
     8  H    0.000595   0.039705
 Mulliken charges and spin densities:
               1          2
     1  O   -0.666891   0.144088
     2  O   -0.328796   0.020581
     3  O   -0.511851   0.235664
     4  O   -0.549173   0.076675
     5  C    0.160876   0.166582
     6  C    0.003747   0.333672
     7  Ba   1.700170   0.008430
     8  H    0.191917   0.014309
 Sum of Mulliken charges =  -0.00000   1.00000
 Mulliken charges and spin densities with hydrogens summed into heavy atoms:
               1          2
     1  O   -0.666891   0.144088
     2  O   -0.136878   0.034890
     3  O   -0.511851   0.235664
     4  O   -0.549173   0.076675
     5  C    0.160876   0.166582
     6  C    0.003747   0.333672
     7  Ba   1.700170   0.008430
 Electronic spatial extent (au):  <R**2>=           1649.9554
 Charge=             -0.0000 electrons
 Dipole moment (field-independent basis, Debye):
    X=             33.3386    Y=             -1.3533    Z=              0.1902  Tot=             33.3666
 Quadrupole moment (field-independent basis, Debye-Ang):
   XX=            -51.0532   YY=            -72.5375   ZZ=            -50.9073
   XY=             -2.1402   XZ=             -4.2781   YZ=              0.0457
 Traceless Quadrupole moment (field-independent basis, Debye-Ang):
   XX=              7.1128   YY=            -14.3715   ZZ=              7.2587
   XY=             -2.1402   XZ=             -4.2781   YZ=              0.0457
 Octapole moment (field-independent basis, Debye-Ang**2):
  XXX=            313.9149  YYY=            -10.5123  ZZZ=             -0.7493  XYY=            106.0758
  XXY=             10.8417  XXZ=             21.6319  XZZ=             55.3316  YZZ=             -1.5218
  YYZ=             -1.7352  XYZ=             -1.2207
 Hexadecapole moment (field-independent basis, Debye-Ang**3):
 XXXX=          -1897.9594 YYYY=           -323.7928 ZZZZ=            -55.7705 XXXY=            -63.3244
 XXXZ=           -113.4632 YYYX=            -17.8693 YYYZ=             -1.2097 ZZZX=             -4.7481
 ZZZY=             -0.2557 XXYY=           -502.9858 XXZZ=           -326.0141 YYZZ=            -54.8257
 XXYZ=              6.7454 YYXZ=              1.4532 ZZXY=             -2.1260
 N-N= 2.738011307295D+02 E-N=-1.493283671860D+03  KE= 3.815648198877D+02
                          Isotropic Fermi Contact Couplings
        Atom                 a.u.       MegaHertz       Gauss      10(-4) cm-1
     1  O(17)              0.06325     -38.34188     -13.68134     -12.78947
     2  O(17)              0.03813     -23.11483      -8.24794      -7.71028
     3  O(17)              0.09222     -55.90186     -19.94717     -18.64685
     4  O(17)              0.02649     -16.05669      -5.72943      -5.35593
     5  C(13)              0.01113      12.51630       4.46613       4.17499
     6  C(13)              0.04588      51.58076      18.40530      17.20549
     7  Ba(135            -0.00000      -0.00002      -0.00001      -0.00001
     8  H(1)               0.00505      22.59463       8.06233       7.53676
 --------------------------------------------------------
       Center         ----  Spin Dipole Couplings  ----
                      3XX-RR        3YY-RR        3ZZ-RR
 --------------------------------------------------------
     1   Atom       -0.290789     -0.333257      0.624047
     2   Atom       -0.060357     -0.085042      0.145399
     3   Atom       -0.501217     -0.522333      1.023550
     4   Atom       -0.176487     -0.181893      0.358380
     5   Atom       -0.092108     -0.106654      0.198762
     6   Atom       -0.201900     -0.193533      0.395433
     7   Atom        0.003709     -0.002080     -0.001629
     8   Atom        0.011732     -0.005367     -0.006365
 --------------------------------------------------------
                        XY            XZ            YZ
 --------------------------------------------------------
     1   Atom        0.012342     -0.111239     -0.099860
     2   Atom        0.040358      0.112335      0.084889
     3   Atom       -0.003024      0.036118      0.200518
     4   Atom        0.007221     -0.076147     -0.026343
     5   Atom        0.011637     -0.069605     -0.033572
     6   Atom        0.012598      0.012757      0.035724
     7   Atom        0.000207      0.000031     -0.000026
     8   Atom       -0.000220     -0.006603      0.000189
 --------------------------------------------------------


 ---------------------------------------------------------------------------------
              Anisotropic Spin Dipole Couplings in Principal Axis System
 ---------------------------------------------------------------------------------

       Atom             a.u.   MegaHertz   Gauss  10(-4) cm-1        Axes

              Baa    -0.3436    24.861     8.871     8.293 -0.0214  0.9947  0.1002
     1 O(17)  Bbb    -0.3041    22.006     7.852     7.340  0.9927  0.0093  0.1200
              Bcc     0.6477   -46.867   -16.723   -15.633 -0.1184 -0.1020  0.9877
 
              Baa    -0.1150     8.320     2.969     2.775 -0.5177  0.8538 -0.0550
     2 O(17)  Bbb    -0.1085     7.850     2.801     2.618  0.7628  0.4314 -0.4818
              Bcc     0.2235   -16.170    -5.770    -5.394  0.3876  0.2914  0.8746
 
              Baa    -0.5491    39.735    14.178    13.254  0.1586  0.9789 -0.1285
     3 O(17)  Bbb    -0.5008    36.238    12.931    12.088  0.9871 -0.1602 -0.0023
              Bcc     1.0499   -75.973   -27.109   -25.342  0.0228  0.1264  0.9917
 
              Baa    -0.1892    13.689     4.885     4.566  0.8570 -0.5065  0.0948
     4 O(17)  Bbb    -0.1812    13.109     4.677     4.373  0.4964  0.8608  0.1121
              Bcc     0.3703   -26.797    -9.562    -8.939 -0.1384 -0.0490  0.9892
 
              Baa    -0.1133   -15.204    -5.425    -5.072 -0.5900  0.8061 -0.0449
     5 C(13)  Bbb    -0.1051   -14.103    -5.032    -4.704  0.7765  0.5818  0.2421
              Bcc     0.2184    29.307    10.457     9.776 -0.2213 -0.1080  0.9692
 
              Baa    -0.2112   -28.340   -10.112    -9.453  0.7954 -0.6058  0.0189
     6 C(13)  Bbb    -0.1867   -25.054    -8.940    -8.357  0.6057  0.7933 -0.0620
              Bcc     0.3979    53.394    19.052    17.810  0.0225  0.0608  0.9979
 
              Baa    -0.0021    -0.111    -0.040    -0.037 -0.0359  0.9976  0.0587
     7 Ba(135 Bbb    -0.0016    -0.087    -0.031    -0.029 -0.0036 -0.0589  0.9983
              Bcc     0.0037     0.198     0.071     0.066  0.9993  0.0356  0.0057
 
              Baa    -0.0085    -4.547    -1.622    -1.517  0.3094 -0.0353  0.9503
     8 H(1)   Bbb    -0.0054    -2.864    -1.022    -0.955  0.0242  0.9993  0.0292
              Bcc     0.0139     7.410     2.644     2.472  0.9506 -0.0139 -0.3100
 

 ---------------------------------------------------------------------------------

 PrsmSu:  requested number of processors reduced to:  22 ShMem   1 Linda.
   1 Symmetry operations used in ECPInt.
 ECPInt:  NShTT=    1176 NPrTT=    4561 LenC2=    1169 LenP2D=    3713.
 LDataN:  DoStor=T MaxTD1= 7 Len=  274
 Number of processors reduced to  24 by ecpmxn.
 D1PCM: PCM CHGder 1st derivatives, ID1Alg=3 FixD1E=F DoIter=F DoCFld=F I1PDM=0.
 CoulSu:  requested number of processors reduced to:  48 ShMem   1 Linda.
 CoulSu:  requested number of processors reduced to:  48 ShMem   1 Linda.
 CoulSu:  requested number of processors reduced to:  29 ShMem   1 Linda.
 CoulSu:  requested number of processors reduced to:  30 ShMem   1 Linda.
 Calling FoFJK, ICntrl=      2127 FMM=F ISym2X=0 I1Cent= 0 IOpClX= 1 NMat=1 NMatS=1 NMatT=0.
 Defaulting to unpruned grid for atomic number  56.
 Defaulting to unpruned grid for atomic number  56.
 Defaulting to unpruned grid for atomic number  56.
 Defaulting to unpruned grid for atomic number  56.
 Defaulting to unpruned grid for atomic number  56.
 Defaulting to unpruned grid for atomic number  56.
 Defaulting to unpruned grid for atomic number  56.
 Defaulting to unpruned grid for atomic number  56.
 Defaulting to unpruned grid for atomic number  56.
 Defaulting to unpruned grid for atomic number  56.
 Defaulting to unpruned grid for atomic number  56.
 Defaulting to unpruned grid for atomic number  56.
 Defaulting to unpruned grid for atomic number  56.
 Defaulting to unpruned grid for atomic number  56.
 Defaulting to unpruned grid for atomic number  56.
 Defaulting to unpruned grid for atomic number  56.
 Defaulting to unpruned grid for atomic number  56.
 Defaulting to unpruned grid for atomic number  56.
 Defaulting to unpruned grid for atomic number  56.
 Defaulting to unpruned grid for atomic number  56.
 Defaulting to unpruned grid for atomic number  56.
 Defaulting to unpruned grid for atomic number  56.
 Defaulting to unpruned grid for atomic number  56.
 Defaulting to unpruned grid for atomic number  56.
 Defaulting to unpruned grid for atomic number  56.
 Defaulting to unpruned grid for atomic number  56.
 Defaulting to unpruned grid for atomic number  56.
 Defaulting to unpruned grid for atomic number  56.
 Defaulting to unpruned grid for atomic number  56.
 Defaulting to unpruned grid for atomic number  56.
 Defaulting to unpruned grid for atomic number  56.
 Defaulting to unpruned grid for atomic number  56.
 Defaulting to unpruned grid for atomic number  56.
 Defaulting to unpruned grid for atomic number  56.
 Defaulting to unpruned grid for atomic number  56.
 Defaulting to unpruned grid for atomic number  56.
 Defaulting to unpruned grid for atomic number  56.
 Defaulting to unpruned grid for atomic number  56.
 Defaulting to unpruned grid for atomic number  56.
 Defaulting to unpruned grid for atomic number  56.
 Defaulting to unpruned grid for atomic number  56.
 Defaulting to unpruned grid for atomic number  56.
 Defaulting to unpruned grid for atomic number  56.
 Defaulting to unpruned grid for atomic number  56.
 Defaulting to unpruned grid for atomic number  56.
 Defaulting to unpruned grid for atomic number  56.
 Defaulting to unpruned grid for atomic number  56.
 Defaulting to unpruned grid for atomic number  56.
 Defaulting to unpruned grid for atomic number  56.
 ***** Axes restored to original set *****
 -------------------------------------------------------------------
 Center     Atomic                   Forces (Hartrees/Bohr)
 Number     Number              X              Y              Z
 -------------------------------------------------------------------
      1        8           0.060930608   -0.012512495    0.040071490
      2        8          -0.042082144   -0.051357064    0.003751583
      3        8           0.002399788   -0.011841029    0.002428418
      4        8           0.028982808    0.030995201    0.016948308
      5        6          -0.099247830   -0.027329721   -0.064768246
      6        6           0.034283412    0.047274190    0.028525704
      7       56          -0.004349987   -0.011553812   -0.001589049
      8        1           0.019083346    0.036324730   -0.025368208
 -------------------------------------------------------------------
 Cartesian Forces:  Max     0.099247830 RMS     0.037436170

 GradGradGradGradGradGradGradGradGradGradGradGradGradGradGradGradGradGrad
 Berny optimization.
 Using GEDIIS/GDIIS optimizer.
 FormGI is forming the generalized inverse of G from B-inverse, IUseBI=4.
 Internal  Forces:  Max     0.071811888 RMS     0.022790704
 Search for a local minimum.
 Step number   2 out of a maximum of   10
 All quantities printed in internal units (Hartrees-Bohrs-Radians)
 Mixed Optimization -- RFO/linear search
 Update second derivatives using D2CorX and points    1    2
 DE= -4.12D-02 DEPred=-3.69D-02 R= 1.11D+00
 TightC=F SS=  1.41D+00  RLast= 3.22D-01 DXNew= 5.0454D-01 9.6582D-01
 Trust test= 1.11D+00 RLast= 3.22D-01 DXMaxT set to 5.05D-01
 ITU=  1  0
 Use linear search instead of GDIIS.
     Eigenvalues ---    0.00688   0.01424   0.01977   0.02795   0.03844
     Eigenvalues ---    0.04288   0.15997   0.19273   0.24960   0.24996
     Eigenvalues ---    0.25000   0.26932   0.30245   0.33449   0.36710
     Eigenvalues ---    0.61255   0.81770   0.86483
 RFO step:  Lambda=-1.42720755D-02 EMin= 6.87968309D-03
 Quartic linear search produced a step of  1.04662.
 Iteration  1 RMS(Cart)=  0.09918717 RMS(Int)=  0.02057442
 Iteration  2 RMS(Cart)=  0.01953594 RMS(Int)=  0.00199084
 Iteration  3 RMS(Cart)=  0.00012541 RMS(Int)=  0.00198863
 Iteration  4 RMS(Cart)=  0.00000041 RMS(Int)=  0.00198863
 Variable       Old X    -DE/DX   Delta X   Delta X   Delta X     New X
                                 (Linear)    (Quad)   (Total)
    R1        2.59237  -0.07181  -0.16336  -0.12716  -0.29052   2.30185
    R2        2.53931   0.03468   0.05459   0.03626   0.09085   2.63016
    R3        1.94137  -0.04794  -0.14594  -0.05121  -0.19715   1.74421
    R4        2.38258   0.00912   0.01419   0.00401   0.01819   2.40077
    R5        2.37063   0.03445   0.03383   0.03527   0.06910   2.43973
    R6        5.04886  -0.01232  -0.07916  -0.12172  -0.20088   4.84798
    R7        2.81140  -0.02012  -0.03592  -0.06653  -0.10245   2.70894
    A1        1.85727  -0.00498  -0.03209   0.00703  -0.02506   1.83220
    A2        2.36344  -0.00849  -0.02069  -0.02998  -0.05067   2.31277
    A3        2.18632  -0.01872  -0.11797   0.05995  -0.05927   2.12705
    A4        1.98406   0.02496   0.14012  -0.04490   0.09431   2.07838
    A5        2.10893  -0.00566  -0.01285  -0.01894  -0.03285   2.07608
    A6        2.09099  -0.00695  -0.04627   0.02388  -0.02418   2.06681
    A7        2.05355  -0.00563   0.02429  -0.08676  -0.06440   1.98915
    A8        2.13494   0.01282   0.02752   0.05036   0.07573   2.21068
    D1        0.54779  -0.00181  -0.00105  -0.10567  -0.10503   0.44275
    D2       -2.50358  -0.00536  -0.05606   0.04394  -0.01381  -2.51739
    D3       -0.23550   0.00482   0.05442  -0.03359   0.01611  -0.21938
    D4        3.00668  -0.00426  -0.04594   0.01958  -0.02165   2.98503
    D5        0.08581  -0.00208  -0.00716  -0.09941  -0.10963  -0.02382
    D6       -2.96313  -0.00461  -0.05719   0.05593  -0.00312  -2.96626
    D7        3.13776   0.00382   0.05828  -0.14118  -0.08104   3.05672
    D8        0.08882   0.00130   0.00825   0.01416   0.02547   0.11429
         Item               Value     Threshold  Converged?
 Maximum Force            0.071812     0.000450     NO 
 RMS     Force            0.022791     0.000300     NO 
 Maximum Displacement     0.260241     0.001800     NO 
 RMS     Displacement     0.108718     0.001200     NO 
 Predicted change in Energy=-2.903514D-02
 GradGradGradGradGradGradGradGradGradGradGradGradGradGradGradGradGradGrad

                          Input orientation:                          
 ---------------------------------------------------------------------
 Center     Atomic      Atomic             Coordinates (Angstroms)
 Number     Number       Type             X           Y           Z
 ---------------------------------------------------------------------
      1          8           0       -0.635953    2.254623    1.556385
      2          8           0       -0.765289   -0.341481    1.581125
      3          8           0        0.936847   -0.424903    3.107557
      4          8           0        1.045018    2.390960    2.958880
      5          6           0        0.213226    1.712780    2.241246
      6          6           0        0.242054    0.281318    2.312249
      7         56           0        1.649059    4.883473    3.022043
      8          1           0       -1.000992   -1.080520    2.081315
 ---------------------------------------------------------------------
                    Distance matrix (angstroms):
                    1          2          3          4          5
     1  O    0.000000
     2  O    2.599442   0.000000
     3  O    3.472707   2.287842   0.000000
     4  O    2.193455   3.555511   2.821859   0.000000
     5  C    1.218087   2.369228   2.417397   1.291048   0.000000
     6  C    2.288266   1.391819   1.270433   2.348079   1.433511
     7  Ba   3.778927   5.933420   5.356624   2.565439   3.567150
     8  H    3.395878   0.922998   2.288717   4.124009   3.049988
                    6          7          8
     6  C    0.000000
     7  Ba   4.864494   0.000000
     8  H    1.858251   6.593706   0.000000
 Stoichiometry    C2HBaO4(2)
 Framework group  C1[X(C2HBaO4)]
 Deg. of freedom    18
 Full point group                 C1      NOp   1
 Largest Abelian subgroup         C1      NOp   1
 Largest concise Abelian subgroup C1      NOp   1
                         Standard orientation:                         
 ---------------------------------------------------------------------
 Center     Atomic      Atomic             Coordinates (Angstroms)
 Number     Number       Type             X           Y           Z
 ---------------------------------------------------------------------
      1          8           0       -1.535880    1.514103    0.057410
      2          8           0       -3.982008    0.645685   -0.081896
      3          8           0       -3.234641   -1.514452    0.015416
      4          8           0       -0.612297   -0.475116    0.092780
      5          6           0       -1.639331    0.301746    0.000624
      6          6           0       -2.944909   -0.282438   -0.095029
      7         56           0        1.912293   -0.030570   -0.008701
      8          1           0       -4.664374    0.234323    0.384026
 ---------------------------------------------------------------------
 Rotational constants (GHZ):           5.8474254           0.4533111           0.4210936
 Standard basis: def2SVP (5D, 7F)
 There are   120 symmetry adapted cartesian basis functions of A   symmetry.
 There are   112 symmetry adapted basis functions of A   symmetry.
   112 basis functions,   211 primitive gaussians,   120 cartesian basis functions
    28 alpha electrons       27 beta electrons
       nuclear repulsion energy       280.1896691192 Hartrees.
 NAtoms=    8 NActive=    8 NUniq=    8 SFac= 1.00D+00 NAtFMM=   60 NAOKFM=F Big=F
 Integral buffers will be    131072 words long.
 Raffenetti 2 integral format.
 Two-electron integral symmetry is turned on.
 ------------------------------------------------------------------------------
 Polarizable Continuum Model (PCM)
 =================================
 Model                : PCM.
 Atomic radii         : UFF (Universal Force Field).
 Polarization charges : Total charges.
 Charge compensation  : None.
 Solution method      : On-the-fly selection.
 Cavity type          : Scaled VdW (van der Waals Surface) (Alpha=1.100).
 Cavity algorithm     : GePol (No added spheres)
                        Default sphere list used, NSphG=    8.
                        Lebedev-Laikov grids with approx.  5.0 points / Ang**2.
                        Smoothing algorithm: York/Karplus (Gamma=1.0000).
                        Polarization charges: spherical gaussians, with
                                              point-specific exponents (IZeta= 3).
                        Self-potential: point-specific (ISelfS= 7).
                        Self-field    : sphere-specific E.n sum rule (ISelfD= 2).
 1st derivatives      : Analytical E(r).r(x)/FMM algorithm (CHGder, D1EAlg=3).
                        Cavity 1st derivative terms included.
 Solvent              : Water, Eps=  78.355300 Eps(inf)=   1.777849
 ------------------------------------------------------------------------------
 Spheres list:
 ISph  on   Nord     Re0    Alpha      Xe            Ye            Ze
    1   O      1    1.7500  1.100     -1.535880      1.514103      0.057410
    2   O      2    1.7500  1.100     -3.982008      0.645685     -0.081896
    3   O      3    1.7500  1.100     -3.234641     -1.514452      0.015416
    4   O      4    1.7500  1.100     -0.612297     -0.475116      0.092780
    5   C      5    1.9255  1.100     -1.639331      0.301746      0.000624
    6   C      6    1.9255  1.100     -2.944909     -0.282438     -0.095029
[...]
 --------------------------                            --------------------------
 ! Name  Definition              Value          Derivative Info.                !
 --------------------------------------------------------------------------------
 ! R1    R(1,5)                  1.2915         -DE/DX =    0.0072              !
 ! R2    R(2,6)                  1.4011         -DE/DX =   -0.0088              !
 ! R3    R(2,8)                  0.9595         -DE/DX =    0.0113              !
 ! R4    R(3,6)                  1.2607         -DE/DX =    0.0102              !
 ! R5    R(4,5)                  1.292          -DE/DX =   -0.0202              !
 ! R6    R(4,7)                  2.5834         -DE/DX =   -0.0001              !
 ! R7    R(5,6)                  1.4437         -DE/DX =    0.0049              !
 ! A1    A(6,2,8)              108.1937         -DE/DX =   -0.0028              !
 ! A2    A(5,4,7)               99.1552         -DE/DX =   -0.0041              !
 ! A3    A(1,5,4)              120.1474         -DE/DX =   -0.0006              !
 ! A4    A(1,5,6)              121.8899         -DE/DX =   -0.003               !
 ! A5    A(4,5,6)              117.9623         -DE/DX =    0.0036              !
 ! A6    A(2,6,3)              119.1849         -DE/DX =   -0.0034              !
 ! A7    A(2,6,5)              115.2956         -DE/DX =    0.0007              !
 ! A8    A(3,6,5)              125.497          -DE/DX =    0.0028              !
 ! D1    D(8,2,6,3)            -25.0712         -DE/DX =    0.0041              !
 ! D2    D(8,2,6,5)            156.5567         -DE/DX =    0.003               !
 ! D3    D(7,4,5,1)             -7.3756         -DE/DX =    0.0002              !
 ! D4    D(7,4,5,6)            172.8498         -DE/DX =    0.0021              !
 ! D5    D(1,5,6,2)             -3.4206         -DE/DX =    0.0029              !
 ! D6    D(1,5,6,3)            178.3252         -DE/DX =    0.0019              !
 ! D7    D(4,5,6,2)            176.3498         -DE/DX =    0.0007              !
 ! D8    D(4,5,6,3)             -1.9044         -DE/DX =   -0.0002              !
 --------------------------------------------------------------------------------
 GradGradGradGradGradGradGradGradGradGradGradGradGradGradGradGradGradGrad

                          Input orientation:                          
 ---------------------------------------------------------------------
 Center     Atomic      Atomic             Coordinates (Angstroms)
 Number     Number       Type             X           Y           Z
 ---------------------------------------------------------------------
      1          8           0       -0.301346    2.491209    1.720518
      2          8           0       -1.011996   -0.145779    1.859845
      3          8           0        0.836700   -0.548113    3.160892
      4          8           0        1.325885    2.214107    3.256208
      5          6           0        0.360066    1.706747    2.497228
      6          6           0        0.147338    0.288014    2.551187
      7         56           0        1.106389    4.638441    2.381248
      8          1           0       -0.779066   -0.968375    1.433674
 ---------------------------------------------------------------------
                    Distance matrix (angstroms):
                    1          2          3          4          5
     1  O    0.000000
     2  O    2.734619   0.000000
     3  O    3.550677   2.296143   0.000000
     4  O    2.254553   3.603413   2.806822   0.000000
     5  C    1.286906   2.391791   2.398337   1.329012   0.000000
     6  C    2.396956   1.417810   1.243410   2.365558   1.435607
     7  Ba   2.651205   5.258154   5.251754   2.586722   3.027422
     8  H    3.504172   0.955271   2.402207   4.228551   3.095973
                    6          7          8
     6  C    0.000000
     7  Ba   4.458125   0.000000
     8  H    1.919784   5.990762   0.000000
 Stoichiometry    C2HBaO4(2)
 Framework group  C1[X(C2HBaO4)]
 Deg. of freedom    18
 Full point group                 C1      NOp   1
 Largest Abelian subgroup         C1      NOp   1
 Largest concise Abelian subgroup C1      NOp   1
                         Standard orientation:                         
 ---------------------------------------------------------------------
 Center     Atomic      Atomic             Coordinates (Angstroms)
 Number     Number       Type             X           Y           Z
 ---------------------------------------------------------------------
      1          8           0       -0.720194    1.116057   -0.011072
      2          8           0       -3.452559    1.103965    0.099286
      3          8           0       -3.424233   -1.183477   -0.098397
      4          8           0       -0.627105   -1.132216    0.128972
      5          6           0       -1.337276   -0.011429    0.053053
      6          6           0       -2.766496   -0.132157   -0.007969
      7         56           0        1.689354    0.010180   -0.012729
      8          1           0       -4.188447    1.056793   -0.507992
 ---------------------------------------------------------------------
 Rotational constants (GHZ):           5.9786437           0.5565036           0.5100245

 **********************************************************************

            Population analysis using the SCF density.

 **********************************************************************

 Orbital symmetries:
 Alpha Orbitals:
       Occupied  (A) (A) (A) (A) (A) (A) (A) (A) (A) (A) (A) (A)
                 (A) (A) (A) (A) (A) (A) (A) (A) (A) (A) (A) (A)
                 (A) (A) (A) (A)
       Virtual   (A) (A) (A) (A) (A) (A) (A) (A) (A) (A) (A) (A)
                 (A) (A) (A) (A) (A) (A) (A) (A) (A) (A) (A) (A)
                 (A) (A) (A) (A) (A) (A) (A) (A) (A) (A) (A) (A)
                 (A) (A) (A) (A) (A) (A) (A) (A) (A) (A) (A) (A)
                 (A) (A) (A) (A) (A) (A) (A) (A) (A) (A) (A) (A)
                 (A) (A) (A) (A) (A) (A) (A) (A) (A) (A) (A) (A)
                 (A) (A) (A) (A) (A) (A) (A) (A) (A) (A) (A) (A)
 Beta  Orbitals:
       Occupied  (A) (A) (A) (A) (A) (A) (A) (A) (A) (A) (A) (A)
                 (A) (A) (A) (A) (A) (A) (A) (A) (A) (A) (A) (A)
                 (A) (A) (A)
       Virtual   (A) (A) (A) (A) (A) (A) (A) (A) (A) (A) (A) (A)
                 (A) (A) (A) (A) (A) (A) (A) (A) (A) (A) (A) (A)
                 (A) (A) (A) (A) (A) (A) (A) (A) (A) (A) (A) (A)
                 (A) (A) (A) (A) (A) (A) (A) (A) (A) (A) (A) (A)
                 (A) (A) (A) (A) (A) (A) (A) (A) (A) (A) (A) (A)
                 (A) (A) (A) (A) (A) (A) (A) (A) (A) (A) (A) (A)
                 (A) (A) (A) (A) (A) (A) (A) (A) (A) (A) (A) (A)
                 (A)
 The electronic state is 2-A.
 Alpha  occ. eigenvalues --  -19.60038 -19.54454 -19.54285 -19.53578 -10.58837
 Alpha  occ. eigenvalues --  -10.58556  -1.33017  -1.12790  -1.08156  -1.03832
 Alpha  occ. eigenvalues --   -0.97930  -0.73070  -0.71341  -0.71207  -0.69202
 Alpha  occ. eigenvalues --   -0.57046  -0.50609  -0.49690  -0.48086  -0.44236
 Alpha  occ. eigenvalues --   -0.42710  -0.40057  -0.35319  -0.32357  -0.30400
 Alpha  occ. eigenvalues --   -0.28954  -0.27343  -0.13239
 Alpha virt. eigenvalues --   -0.00433   0.04391   0.04679   0.05191   0.06299
 Alpha virt. eigenvalues --    0.06872   0.08035   0.08193   0.09181   0.12659
 Alpha virt. eigenvalues --    0.14517   0.15599   0.15695   0.15770   0.18299
 Alpha virt. eigenvalues --    0.19084   0.20069   0.32712   0.34940   0.39800
 Alpha virt. eigenvalues --    0.52015   0.54340   0.58508   0.64024   0.64600
 Alpha virt. eigenvalues --    0.68491   0.69956   0.71023   0.73927   0.76954
 Alpha virt. eigenvalues --    0.83970   1.02683   1.04517   1.07634   1.09189
 Alpha virt. eigenvalues --    1.11862   1.12843   1.14363   1.15976   1.18690
 Alpha virt. eigenvalues --    1.21415   1.24498   1.27080   1.30406   1.34412
 Alpha virt. eigenvalues --    1.47410   1.52073   1.55575   1.59631   1.62071
 Alpha virt. eigenvalues --    1.68196   1.78792   1.80958   1.87920   1.90598
 Alpha virt. eigenvalues --    1.96074   2.03010   2.09544   2.16503   2.26201
 Alpha virt. eigenvalues --    2.34230   2.45611   2.49521   2.77677   2.78268
 Alpha virt. eigenvalues --    2.80182   2.81730   2.84634   2.89201   2.92935
 Alpha virt. eigenvalues --    3.04169   3.07185   3.10573   3.18794   3.21566
 Alpha virt. eigenvalues --    3.26627   3.29018   3.42048   3.56401   3.62850
 Alpha virt. eigenvalues --    3.71652   3.76538   3.86744  83.10493
  Beta  occ. eigenvalues --  -19.59964 -19.53998 -19.53831 -19.53346 -10.58719
  Beta  occ. eigenvalues --  -10.58352  -1.33004  -1.12071  -1.07470  -1.02559
  Beta  occ. eigenvalues --   -0.97098  -0.72301  -0.71316  -0.71201  -0.68332
  Beta  occ. eigenvalues --   -0.56337  -0.49322  -0.49043  -0.46123  -0.43087
  Beta  occ. eigenvalues --   -0.41554  -0.38210  -0.32092  -0.31284  -0.28506
  Beta  occ. eigenvalues --   -0.27323  -0.26678
  Beta virt. eigenvalues --   -0.00800   0.03657   0.04272   0.04410   0.04707
  Beta virt. eigenvalues --    0.05866   0.06505   0.07544   0.07730   0.08932
  Beta virt. eigenvalues --    0.12456   0.14398   0.15471   0.15637   0.15689
  Beta virt. eigenvalues --    0.18362   0.19940   0.23584   0.33247   0.36038
  Beta virt. eigenvalues --    0.40417   0.52655   0.55490   0.60176   0.64317
  Beta virt. eigenvalues --    0.64883   0.69033   0.70672   0.71408   0.74609
  Beta virt. eigenvalues --    0.78217   0.84838   1.03129   1.05530   1.08056
  Beta virt. eigenvalues --    1.09733   1.12411   1.13287   1.15231   1.16473
  Beta virt. eigenvalues --    1.19036   1.22169   1.25012   1.27489   1.31144
  Beta virt. eigenvalues --    1.34643   1.49738   1.52170   1.57191   1.59918
  Beta virt. eigenvalues --    1.62400   1.69741   1.79377   1.81611   1.88612
  Beta virt. eigenvalues --    1.91628   1.97131   2.04095   2.11178   2.19393
  Beta virt. eigenvalues --    2.27333   2.34498   2.46991   2.52558   2.78465
  Beta virt. eigenvalues --    2.79965   2.80974   2.82758   2.85682   2.89918
  Beta virt. eigenvalues --    2.93596   3.04896   3.07592   3.11458   3.19645
  Beta virt. eigenvalues --    3.22911   3.27409   3.30259   3.42664   3.57268
  Beta virt. eigenvalues --    3.63806   3.72653   3.77456   3.87337  83.10513
          Condensed to atoms (all electrons):
               1          2          3          4          5          6
     1  O    8.230622   0.006130   0.001293  -0.096088   0.411637  -0.099715
     2  O    0.006130   7.938593  -0.085814   0.001250  -0.137240   0.321370
     3  O    0.001293  -0.085814   7.998867   0.001213  -0.128091   0.637180
     4  O   -0.096088   0.001250   0.001213   8.319929   0.388465  -0.108996
     5  C    0.411637  -0.137240  -0.128091   0.388465   5.160265   0.144278
     6  C   -0.099715   0.321370   0.637180  -0.108996   0.144278   5.097954
     7  Ba   0.120496   0.010102   0.007954   0.130392  -0.069994  -0.005426
     8  H   -0.000350   0.302596   0.010631  -0.000198   0.016657  -0.026971
               7          8
     1  O    0.120496  -0.000350
     2  O    0.010102   0.302596
     3  O    0.007954   0.010631
     4  O    0.130392  -0.000198
     5  C   -0.069994   0.016657
     6  C   -0.005426  -0.026971
     7  Ba   8.224441  -0.001359
     8  H   -0.001359   0.526523
          Atomic-Atomic Spin Densities.
               1          2          3          4          5          6
     1  O    0.183655   0.000746   0.000199   0.006365  -0.070481  -0.012917
     2  O    0.000746   0.044081   0.004799   0.000068  -0.004780  -0.028334
     3  O    0.000199   0.004799   0.408518   0.001700  -0.011326  -0.143868
     4  O    0.006365   0.000068   0.001700   0.149190  -0.061492  -0.011996
     5  C   -0.070481  -0.004780  -0.011326  -0.061492   0.239797   0.135297
     6  C   -0.012917  -0.028334  -0.143868  -0.011996   0.135297   0.375861
     7  Ba   0.008321   0.000520   0.001243   0.008169  -0.018822  -0.007527
     8  H    0.000263  -0.005790   0.002938   0.000007  -0.001714  -0.011899
               7          8
     1  O    0.008321   0.000263
     2  O    0.000520  -0.005790
     3  O    0.001243   0.002938
     4  O    0.008169   0.000007
     5  C   -0.018822  -0.001714
     6  C   -0.007527  -0.011899
     7  Ba   0.017026   0.000141
     8  H    0.000141   0.022208
 Mulliken charges and spin densities:
               1          2
     1  O   -0.574025   0.116151
     2  O   -0.356987   0.011311
     3  O   -0.443233   0.264204
     4  O   -0.635967   0.092011
     5  C    0.214023   0.206478
     6  C    0.040326   0.294618
     7  Ba   1.583393   0.009072
     8  H    0.172470   0.006154
 Sum of Mulliken charges =  -0.00000   1.00000
 Mulliken charges and spin densities with hydrogens summed into heavy atoms:
               1          2
     1  O   -0.574025   0.116151
     2  O   -0.184518   0.017465
     3  O   -0.443233   0.264204
     4  O   -0.635967   0.092011
     5  C    0.214023   0.206478
     6  C    0.040326   0.294618
     7  Ba   1.583393   0.009072
 Electronic spatial extent (au):  <R**2>=           1351.5379
 Charge=             -0.0000 electrons
 Dipole moment (field-independent basis, Debye):
    X=             26.0285    Y=              2.4911    Z=             -1.3526  Tot=             26.1824
 Quadrupole moment (field-independent basis, Debye-Ang):
   XX=            -55.7884   YY=            -68.1360   ZZ=            -50.4833
   XY=             -8.5252   XZ=              3.8794   YZ=             -1.0819
 Traceless Quadrupole moment (field-independent basis, Debye-Ang):
   XX=              2.3475   YY=            -10.0001   ZZ=              7.6526
   XY=             -8.5252   XZ=              3.8794   YZ=             -1.0819
 Octapole moment (field-independent basis, Debye-Ang**2):
  XXX=            255.5667  YYY=              6.4556  ZZZ=             -2.0704  XYY=             73.7520
  XXY=             37.2097  XXZ=            -17.8270  XZZ=             44.5204  YZZ=              1.6197
  YYZ=             -2.1470  XYZ=              6.6404
 Hexadecapole moment (field-independent basis, Debye-Ang**3):
 XXXX=          -1668.7884 YYYY=           -272.5219 ZZZZ=            -55.2213 XXXY=           -158.4312
 XXXZ=             73.6720 YYYX=            -16.3557 YYYZ=             -1.5542 ZZZX=              1.2595
 ZZZY=             -0.3275 XXYY=           -364.5549 XXZZ=           -253.8372 YYZZ=            -50.9267
 XXYZ=            -27.8325 YYXZ=              4.6709 ZZXY=             -3.5872
 N-N= 2.841893643233D+02 E-N=-1.512624299976D+03  KE= 3.818159715497D+02
                          Isotropic Fermi Contact Couplings
        Atom                 a.u.       MegaHertz       Gauss      10(-4) cm-1
     1  O(17)              0.04657     -28.22783     -10.07239      -9.41579
     2  O(17)              0.02106     -12.76892      -4.55627      -4.25925
     3  O(17)              0.09807     -59.44790     -21.21249     -19.82969
     4  O(17)              0.03808     -23.08109      -8.23591      -7.69902
     5  C(13)              0.01646      18.50727       6.60385       6.17336
     6  C(13)              0.03424      38.49776      13.73696      12.84147
     7  Ba(135            -0.00000      -0.00005      -0.00002      -0.00002
     8  H(1)               0.00386      17.24160       6.15223       5.75118
 --------------------------------------------------------
       Center         ----  Spin Dipole Couplings  ----
                      3XX-RR        3YY-RR        3ZZ-RR
 --------------------------------------------------------
     1   Atom       -0.265191     -0.266601      0.531792
     2   Atom       -0.034875     -0.088101      0.122976
     3   Atom       -0.555810     -0.567572      1.123382
     4   Atom       -0.215679     -0.220140      0.435818
     5   Atom       -0.119549     -0.135045      0.254594
     6   Atom       -0.172595     -0.183985      0.356581
     7   Atom        0.005472     -0.002783     -0.002689
     8   Atom        0.008414     -0.001546     -0.006868
 --------------------------------------------------------
                        XY            XZ            YZ
 --------------------------------------------------------
     1   Atom       -0.009413      0.003694      0.065611
     2   Atom        0.018586     -0.084817     -0.029359
     3   Atom       -0.010742     -0.120923     -0.161725
     4   Atom        0.009769     -0.029050      0.040806
     5   Atom        0.003913     -0.002413      0.021381
     6   Atom        0.015083     -0.032444     -0.030178
     7   Atom        0.000131     -0.000120      0.000055
     8   Atom       -0.006637      0.005798     -0.002774
 --------------------------------------------------------


 ---------------------------------------------------------------------------------
              Anisotropic Spin Dipole Couplings in Principal Axis System
 ---------------------------------------------------------------------------------

       Atom             a.u.   MegaHertz   Gauss  10(-4) cm-1        Axes

              Baa    -0.2788    20.176     7.199     6.730  0.5791  0.8124 -0.0684
     1 O(17)  Bbb    -0.2583    18.692     6.670     6.235  0.8153 -0.5774  0.0441
              Bcc     0.5372   -38.868   -13.869   -12.965  0.0036  0.0813  0.9967
 
              Baa    -0.0940     6.803     2.428     2.269 -0.2638  0.9642  0.0273
     2 O(17)  Bbb    -0.0706     5.106     1.822     1.703  0.8785  0.2284  0.4196
              Bcc     0.1646   -11.909    -4.249    -3.972 -0.3984 -0.1347  0.9073
 
              Baa    -0.5975    43.234    15.427    14.421  0.5506  0.8266  0.1164
     3 O(17)  Bbb    -0.5496    39.768    14.190    13.265  0.8318 -0.5550  0.0065
              Bcc     1.1471   -83.002   -29.617   -27.686 -0.0699 -0.0932  0.9932
 
              Baa    -0.2317    16.764     5.982     5.592 -0.6150  0.7850 -0.0748
     4 O(17)  Bbb    -0.2079    15.043     5.368     5.018  0.7873  0.6165 -0.0035
              Bcc     0.4396   -31.808   -11.350   -10.610 -0.0433  0.0610  0.9972
 
              Baa    -0.1371   -18.403    -6.567    -6.139 -0.2239  0.9731 -0.0545
     5 C(13)  Bbb    -0.1186   -15.920    -5.680    -5.310  0.9746  0.2239 -0.0065
              Bcc     0.2558    34.323    12.247    11.449 -0.0058  0.0546  0.9985
 
              Baa    -0.1945   -26.099    -9.313    -8.706 -0.5541  0.8324  0.0130
     6 C(13)  Bbb    -0.1658   -22.254    -7.941    -7.423  0.8301  0.5513  0.0834
              Bcc     0.3603    48.353    17.254    16.129 -0.0623 -0.0570  0.9964
 
              Baa    -0.0028    -0.150    -0.054    -0.050 -0.0205  0.9053 -0.4243
     7 Ba(135 Bbb    -0.0027    -0.142    -0.051    -0.047  0.0066  0.4245  0.9054
              Bcc     0.0055     0.292     0.104     0.097  0.9998  0.0157 -0.0146
 
              Baa    -0.0089    -4.735    -1.690    -1.580 -0.2780  0.1094  0.9543
     8 H(1)   Bbb    -0.0049    -2.593    -0.925    -0.865  0.4384  0.8985  0.0247
              Bcc     0.0137     7.329     2.615     2.445  0.8547 -0.4252  0.2977
 

 ---------------------------------------------------------------------------------



 WHEN ALL ELSE FAILS, TRY THE BOSS'S SUGGESTION.
 Error termination request processed by link 9999.
 Error termination via Lnk1e in /home/pub/g16/l9999.exe at Thu Jun 22 06:27:36 2023.
 Job cpu time:       0 days  0 hours 47 minutes 32.0 seconds.
 Elapsed time:       0 days  0 hours  1 minutes  9.8 seconds.
 File lengths (MBytes):  RWF=     39 Int=      0 D2E=      0 Chk=      4 Scr=      1
