 Entering Gaussian System, Link 0=g16
 Initial command:
 /home/pub/g16/l1.exe "/home/zz1/gauss/SCRDIR/Gau-2957435.inp" -scrdir="/home/zz1/gauss/SCRDIR/"
 Entering Link 1 = /home/pub/g16/l1.exe PID=   2957437.
  
 Copyright (c) 1988,1990,1992,1993,1995,1998,2003,2009,2016,
            Gaussian, Inc.  All Rights Reserved.
  
 This is part of the Gaussian(R) 16 program.  It is based on
 the Gaussian(R) 09 system (copyright 2009, Gaussian, Inc.),
 the Gaussian(R) 03 system (copyright 2003, Gaussian, Inc.),
 the Gaussian(R) 98 system (copyright 1998, Gaussian, Inc.),
 the Gaussian(R) 94 system (copyright 1995, Gaussian, Inc.),
 the Gaussian 92(TM) system (copyright 1992, Gaussian, Inc.),
 the Gaussian 90(TM) system (copyright 1990, Gaussian, Inc.),
 the Gaussian 88(TM) system (copyright 1988, Gaussian, Inc.),
 the Gaussian 86(TM) system (copyright 1986, Carnegie Mellon
 University), and the Gaussian 82(TM) system (copyright 1983,
 Carnegie Mellon University). Gaussian is a federally registered
 trademark of Gaussian, Inc.
  
 This software contains proprietary and confidential information,
 including trade secrets, belonging to Gaussian, Inc.
  
 This software is provided under written license and may be
 used, copied, transmitted, or stored only in accord with that
 written license.
  
 The following legend is applicable only to US Government
 contracts under FAR:
  
                    RESTRICTED RIGHTS LEGEND
  
 Use, reproduction and disclosure by the US Government is
 subject to restrictions as set forth in subparagraphs (a)
 and (c) of the Commercial Computer Software - Restricted
 Rights clause in FAR 52.227-19.
  
 Gaussian, Inc.
 340 Quinnipiac St., Bldg. 40, Wallingford CT 06492
  
  
 ---------------------------------------------------------------
 Warning -- This program may not be used in any manner that
 competes with the business of Gaussian, Inc. or will provide
 assistance to any competitor of Gaussian, Inc.  The licensee
 of this program is prohibited from giving any competitor of
 Gaussian, Inc. access to this program.  By using this program,
 the user acknowledges that Gaussian, Inc. is engaged in the
 business of creating and licensing software in the field of
 computational chemistry and represents and warrants to the
 licensee that it is not a competitor of Gaussian, Inc. and that
 it will not use this program in any manner prohibited above.
 ---------------------------------------------------------------
  

 Cite this work as:
 Gaussian 16, Revision A.03,
 M. J. Frisch, G. W. Trucks, H. B. Schlegel, G. E. Scuseria, 
 M. A. Robb, J. R. Cheeseman, G. Scalmani, V. Barone, 
 G. A. Petersson, H. Nakatsuji, X. Li, M. Caricato, A. V. Marenich, 
 J. Bloino, B. G. Janesko, R. Gomperts, B. Mennucci, H. P. Hratchian, 
 J. V. Ortiz, A. F. Izmaylov, J. L. Sonnenberg, D. Williams-Young, 
 F. Ding, F. Lipparini, F. Egidi, J. Goings, B. Peng, A. Petrone, 
 T. Henderson, D. Ranasinghe, V. G. Zakrzewski, J. Gao, N. Rega, 
 G. Zheng, W. Liang, M. Hada, M. Ehara, K. Toyota, R. Fukuda, 
 J. Hasegawa, M. Ishida, T. Nakajima, Y. Honda, O. Kitao, H. Nakai, 
 T. Vreven, K. Throssell, J. A. Montgomery, Jr., J. E. Peralta, 
 F. Ogliaro, M. J. Bearpark, J. J. Heyd, E. N. Brothers, K. N. Kudin, 
 V. N. Staroverov, T. A. Keith, R. Kobayashi, J. Normand, 
 K. Raghavachari, A. P. Rendell, J. C. Burant, S. S. Iyengar, 
 J. Tomasi, M. Cossi, J. M. Millam, M. Klene, C. Adamo, R. Cammi, 
 J. W. Ochterski, R. L. Martin, K. Morokuma, O. Farkas, 
 J. B. Foresman, and D. J. Fox, Gaussian, Inc., Wallingford CT, 2016.
 
 ******************************************
 Gaussian 16:  ES64L-G16RevA.03 25-Dec-2016
                 3-May-2023 
 ******************************************
 %chk=/home/zz1/proj/gauss/new/chk/Ca-ZUMXEN-2/194.chk
 %CPU=0-48
 SetSPE:  set environment variable "MP_BIND" = "yes"
 SetSPE:  set environment variable "MP_BLIST" = "0,1,2,3,4,5,6,7,8,9,10,11,12,13,14,15,16,17,18,19,20,21,22,23,24,25,26,27,28,29,30,31,32,33,34,35,36,37,38,39,40,41,42,43,44,45,46,47,48"
 Will use up to   49 processors via shared memory.
 ----------------------------------------------------
 # M062X/Def2SVP opt(MaxCyc=10)/freq SCRF pop(Always)
 ----------------------------------------------------
 1/6=10,18=20,19=15,26=3,38=1/1,3;
 2/9=110,12=2,17=6,18=5,40=1/2;
 3/5=43,7=101,11=2,25=1,30=1,70=2201,71=1,74=-55/1,2,3;
 4//1;
 5/5=2,38=5/2;
 6/7=2,8=2,9=2,10=2,28=1/1;
 7//1,2,3,16;
 1/6=10,18=20,19=15,26=3/3(2);
 2/9=110/2;
 99//99;
 2/9=110/2;
 3/5=43,7=101,11=2,25=1,30=1,70=2205,71=1,74=-55/1,2,3;
 4/5=5,16=3,69=1/1;
 5/5=2,38=5/2;
 6/7=2,8=2,9=2,10=2,28=1/1;
 7//1,2,3,16;
 1/6=10,18=20,19=15,26=3/3(-6);
 2/9=110/2;
 6/7=2,8=2,9=2,10=2,19=2,28=1/1;
 99/9=1/99;
 -----------
 Ca-ZUMXEN-2
 -----------
 Symbolic Z-matrix:
 Charge =  0 Multiplicity = 1
 B                     8.18763   8.34617   0.67527 
 H                     8.9722    8.50314   0.92556 
 H                     7.31577   9.65059   0.34458 
 H                     7.65719   7.62095   0.1958 
 Ca                    5.15447   9.19373   1.58825 
 
 Add virtual bond connecting atoms H3         and B1         Dist= 3.03D+00.
 Add virtual bond connecting atoms Ca5        and H3         Dist= 4.79D+00.

 GradGradGradGradGradGradGradGradGradGradGradGradGradGradGradGradGradGrad
 Berny optimization.
 Initialization pass.
                           ----------------------------
                           !    Initial Parameters    !
                           ! (Angstroms and Degrees)  !
 --------------------------                            --------------------------
 ! Name  Definition              Value          Derivative Info.                !
 --------------------------------------------------------------------------------
 ! R1    R(1,2)                  0.8384         estimate D2E/DX2                !
 ! R2    R(1,3)                  1.6034         estimate D2E/DX2                !
 ! R3    R(1,4)                  1.0184         estimate D2E/DX2                !
 ! R4    R(3,5)                  2.5351         estimate D2E/DX2                !
 ! A1    A(2,1,3)              114.7156         estimate D2E/DX2                !
 ! A2    A(2,1,4)              139.58           estimate D2E/DX2                !
 ! A3    A(3,1,4)              101.4785         estimate D2E/DX2                !
 ! A4    A(1,3,5)              102.4618         estimate D2E/DX2                !
 ! D1    D(2,1,3,4)            161.56           estimate D2E/DX2                !
 ! D2    D(2,1,3,5)           -132.1221         estimate D2E/DX2                !
 ! D3    D(4,1,3,5)             66.3179         estimate D2E/DX2                !
 --------------------------------------------------------------------------------
 Trust Radius=3.00D-01 FncErr=1.00D-07 GrdErr=1.00D-06 EigMax=2.50D+02 EigMin=1.00D-04
 Number of steps in this run=     10 maximum allowed number of steps=    100.
 GradGradGradGradGradGradGradGradGradGradGradGradGradGradGradGradGradGrad

                          Input orientation:                          
 ---------------------------------------------------------------------
 Center     Atomic      Atomic             Coordinates (Angstroms)
 Number     Number       Type             X           Y           Z
 ---------------------------------------------------------------------
      1          5           0        8.187630    8.346170    0.675270
      2          1           0        8.972200    8.503140    0.925560
      3          1           0        7.315770    9.650590    0.344580
      4          1           0        7.657190    7.620950    0.195800
      5         20           0        5.154470    9.193730    1.588250
 ---------------------------------------------------------------------
                    Distance matrix (angstroms):
                    1          2          3          4          5
     1  B    0.000000
     2  H    0.838352   0.000000
     3  H    1.603436   2.097127   0.000000
     4  H    1.018431   1.743577   2.063527   0.000000
     5  Ca   3.279017   3.935878   2.535085   3.267440   0.000000
 Stoichiometry    BCaH3
 Framework group  C1[X(BCaH3)]
 Deg. of freedom     9
 Full point group                 C1      NOp   1
 Largest Abelian subgroup         C1      NOp   1
 Largest concise Abelian subgroup C1      NOp   1
                         Standard orientation:                         
 ---------------------------------------------------------------------
 Center     Atomic      Atomic             Coordinates (Angstroms)
 Number     Number       Type             X           Y           Z
 ---------------------------------------------------------------------
      1          5           0       -2.362955   -0.043900   -0.055998
      2          1           0       -2.976393    0.302821   -0.510215
      3          1           0       -1.329780    1.001836    0.584310
      4          1           0       -2.191882   -0.871590    0.512215
      5         20           0        0.915641   -0.010678   -0.015316
 ---------------------------------------------------------------------
 Rotational constants (GHZ):         180.9071728           4.5473684           4.5074170
 Standard basis: def2SVP (5D, 7F)
 There are    56 symmetry adapted cartesian basis functions of A   symmetry.
 There are    53 symmetry adapted basis functions of A   symmetry.
    53 basis functions,   111 primitive gaussians,    56 cartesian basis functions
    14 alpha electrons       14 beta electrons
       nuclear repulsion energy        34.4576749157 Hartrees.
 NAtoms=    5 NActive=    5 NUniq=    5 SFac= 1.00D+00 NAtFMM=   60 NAOKFM=F Big=F
 Integral buffers will be    131072 words long.
 Raffenetti 2 integral format.
 Two-electron integral symmetry is turned on.
 ------------------------------------------------------------------------------
 Polarizable Continuum Model (PCM)
 =================================
 Model                : PCM.
 Atomic radii         : UFF (Universal Force Field).
 Polarization charges : Total charges.
 Charge compensation  : None.
 Solution method      : On-the-fly selection.
 Cavity type          : Scaled VdW (van der Waals Surface) (Alpha=1.100).
 Cavity algorithm     : GePol (No added spheres)
                        Default sphere list used, NSphG=    5.
                        Lebedev-Laikov grids with approx.  5.0 points / Ang**2.
                        Smoothing algorithm: York/Karplus (Gamma=1.0000).
                        Polarization charges: spherical gaussians, with
                                              point-specific exponents (IZeta= 3).
                        Self-potential: point-specific (ISelfS= 7).
                        Self-field    : sphere-specific E.n sum rule (ISelfD= 2).
 1st derivatives      : Analytical E(r).r(x)/FMM algorithm (CHGder, D1EAlg=3).
                        Cavity 1st derivative terms included.
 Solvent              : Water, Eps=  78.355300 Eps(inf)=   1.777849
 ------------------------------------------------------------------------------
 Spheres list:
 ISph  on   Nord     Re0    Alpha      Xe            Ye            Ze
    1   B      1    2.0415  1.100     -2.362955     -0.043900     -0.055998
    2   H      2    1.4430  1.100     -2.976393      0.302821     -0.510215
    3   H      3    1.4430  1.100     -1.329780      1.001836      0.584310
    4   H      4    1.4430  1.100     -2.191882     -0.871590      0.512215
    5  Ca      5    1.6995  1.100      0.915641     -0.010678     -0.015316
 ------------------------------------------------------------------------------
 One-electron integrals computed using PRISM.
 PrsmSu:  requested number of processors reduced to:  30 ShMem   1 Linda.
   1 Symmetry operations used in ECPInt.
 ECPInt:  NShTT=     325 NPrTT=    1544 LenC2=     325 LenP2D=    1362.
 LDataN:  DoStor=T MaxTD1= 4 Len=   56
 NBasis=    53 RedAO= T EigKep=  6.44D-03  NBF=    53
 NBsUse=    53 1.00D-06 EigRej= -1.00D+00 NBFU=    53
 ExpMin= 1.98D-02 ExpMax= 3.51D+04 ExpMxC= 5.28D+03 IAcc=3 IRadAn=         5 AccDes= 0.00D+00
 Harris functional with IExCor= 1009 and IRadAn=       5 diagonalized for initial guess.
 HarFok:  IExCor= 1009 AccDes= 0.00D+00 IRadAn=         5 IDoV= 1 UseB2=F ITyADJ=14
 ICtDFT=  3500011 ScaDFX=  1.000000  1.000000  1.000000  1.000000
 FoFCou: FMM=F IPFlag=           0 FMFlag=      100000 FMFlg1=           0
         NFxFlg=           0 DoJE=T BraDBF=F KetDBF=T FulRan=T
         wScrn=  0.000000 ICntrl=       500 IOpCl=  0 I1Cent=   200000004 NGrid=           0
         NMat0=    1 NMatS0=      1 NMatT0=    0 NMatD0=    1 NMtDS0=    0 NMtDT0=    0
 Petite list used in FoFCou.
 Keep R1 ints in memory in canonical form, NReq=44163604.
 Requested convergence on RMS density matrix=1.00D-08 within 128 cycles.
 Requested convergence on MAX density matrix=1.00D-06.
 Requested convergence on             energy=1.00D-06.
 No special actions if energy rises.
 Inv3:  Mode=1 IEnd=     1778700.
 Iteration    1 A*A^-1 deviation from unit magnitude is 3.33D-15 for    381.
 Iteration    1 A*A^-1 deviation from orthogonality  is 2.22D-15 for    548     63.
 Iteration    1 A^-1*A deviation from unit magnitude is 2.89D-15 for    390.
 Iteration    1 A^-1*A deviation from orthogonality  is 2.19D-15 for    630    558.
 CoulSu:  requested number of processors reduced to:  47 ShMem   1 Linda.
 Error on total polarization charges =  0.06998
 SCF Done:  E(RM062X) =  -703.929613014     A.U. after   15 cycles
            NFock= 15  Conv=0.68D-08     -V/T= 2.0015

 **********************************************************************

            Population analysis using the SCF density.

 **********************************************************************

 Orbital symmetries:
       Occupied  (A) (A) (A) (A) (A) (A) (A) (A) (A) (A) (A) (A)
                 (A) (A)
       Virtual   (A) (A) (A) (A) (A) (A) (A) (A) (A) (A) (A) (A)
                 (A) (A) (A) (A) (A) (A) (A) (A) (A) (A) (A) (A)
                 (A) (A) (A) (A) (A) (A) (A) (A) (A) (A) (A) (A)
                 (A) (A) (A)
 The electronic state is 1-A.
 Alpha  occ. eigenvalues -- -146.72039 -15.84009 -12.95229 -12.95222 -12.95195
 Alpha  occ. eigenvalues --   -6.94742  -1.92157  -1.15223  -1.15180  -1.14841
 Alpha  occ. eigenvalues --   -0.53075  -0.40000  -0.28551  -0.11880
 Alpha virt. eigenvalues --    0.00383   0.08256   0.08624   0.08900   0.09575
 Alpha virt. eigenvalues --    0.09820   0.10625   0.11352   0.11588   0.15831
 Alpha virt. eigenvalues --    0.19792   0.21740   0.24561   0.26810   0.27323
 Alpha virt. eigenvalues --    0.28037   0.28964   0.30558   0.35867   0.41584
 Alpha virt. eigenvalues --    0.44143   0.54646   0.68762   0.85958   1.04987
 Alpha virt. eigenvalues --    1.10498   1.17565   1.25908   1.53065   1.58438
 Alpha virt. eigenvalues --    1.66723   1.75176   1.95771   2.09541   2.23937
 Alpha virt. eigenvalues --    2.35262   2.40505   3.22517   3.48348
          Condensed to atoms (all electrons):
               1          2          3          4          5
     1  B    4.355826   0.417057   0.255669   0.445302   0.258434
     2  H    0.417057   0.750090  -0.035390  -0.001236  -0.046790
     3  H    0.255669  -0.035390   1.000840  -0.043077   0.074744
     4  H    0.445302  -0.001236  -0.043077   0.646136   0.003039
     5  Ca   0.258434  -0.046790   0.074744   0.003039  18.591606
 Mulliken charges:
               1
     1  B   -0.732287
     2  H   -0.083730
     3  H   -0.252786
     4  H   -0.050163
     5  Ca   1.118967
 Sum of Mulliken charges =  -0.00000
 Mulliken charges with hydrogens summed into heavy atoms:
               1
     1  B   -1.118967
     5  Ca   1.118967
 Electronic spatial extent (au):  <R**2>=            297.2314
 Charge=             -0.0000 electrons
 Dipole moment (field-independent basis, Debye):
    X=             20.2898    Y=             -0.2916    Z=              2.4290  Tot=             20.4368
 Quadrupole moment (field-independent basis, Debye-Ang):
   XX=            -40.7479   YY=            -27.4516   ZZ=            -29.6155
   XY=              0.6503   XZ=             -0.8315   YZ=             -2.4108
 Traceless Quadrupole moment (field-independent basis, Debye-Ang):
   XX=             -8.1429   YY=              5.1534   ZZ=              2.9895
   XY=              0.6503   XZ=             -0.8315   YZ=             -2.4108
 Octapole moment (field-independent basis, Debye-Ang**2):
  XXX=            118.8653  YYY=             -0.7887  ZZZ=              9.9252  XYY=             23.5500
  XXY=             -2.0567  XXZ=             -1.8729  XZZ=             27.3081  YZZ=             -0.1160
  YYZ=              2.2134  XYZ=              3.1357
 Hexadecapole moment (field-independent basis, Debye-Ang**3):
 XXXX=           -583.1305 YYYY=            -72.2790 ZZZZ=            -77.0152 XXXY=              4.7416
 XXXZ=              9.2163 YYYX=              1.9437 YYYZ=             -6.7198 ZZZX=             -6.1852
 ZZZY=             -6.2026 XXYY=            -93.1601 XXZZ=           -103.1155 YYZZ=            -25.0142
 XXYZ=             -7.0622 YYXZ=             -0.4187 ZZXY=              0.3616
 N-N= 3.445767491575D+01 E-N=-1.731066104786D+03  KE= 7.028687023373D+02
 PrsmSu:  requested number of processors reduced to:  30 ShMem   1 Linda.
   1 Symmetry operations used in ECPInt.
 ECPInt:  NShTT=     325 NPrTT=    1544 LenC2=     325 LenP2D=    1362.
 LDataN:  DoStor=T MaxTD1= 5 Len=  102
 Number of processors reduced to  42 by ecpmxn.
 D1PCM: PCM CHGder 1st derivatives, ID1Alg=3 FixD1E=F DoIter=F DoCFld=F I1PDM=0.
 CoulSu:  requested number of processors reduced to:  30 ShMem   1 Linda.
 CoulSu:  requested number of processors reduced to:  30 ShMem   1 Linda.
 Calling FoFJK, ICntrl=      2127 FMM=F ISym2X=0 I1Cent= 0 IOpClX= 0 NMat=1 NMatS=1 NMatT=0.
 ***** Axes restored to original set *****
 -------------------------------------------------------------------
 Center     Atomic                   Forces (Hartrees/Bohr)
 Number     Number              X              Y              Z
 -------------------------------------------------------------------
      1        5          -0.420478133    0.048231491   -0.067491958
      2        1           0.437750393    0.088930465    0.136976345
      3        1           0.026378969   -0.030353269    0.004010674
      4        1          -0.062835920   -0.102108766   -0.071394778
      5       20           0.019184691   -0.004699922   -0.002100283
 -------------------------------------------------------------------
 Cartesian Forces:  Max     0.437750393 RMS     0.168023695

 GradGradGradGradGradGradGradGradGradGradGradGradGradGradGradGradGradGrad
 Berny optimization.
 FormGI is forming the generalized inverse of G from B-inverse, IUseBI=4.
 Internal  Forces:  Max     0.467224217 RMS     0.148826014
 Search for a local minimum.
 Step number   1 out of a maximum of   10
 All quantities printed in internal units (Hartrees-Bohrs-Radians)
 Mixed Optimization -- RFO/linear search
 Second derivative matrix not updated -- first step.
 The second derivative matrix:
                          R1        R2        R3        R4        A1
           R1           0.92671
           R2           0.00000   0.09028
           R3           0.00000   0.00000   0.44589
           R4           0.00000   0.00000   0.00000   0.02557
           A1           0.00000   0.00000   0.00000   0.00000   0.16000
           A2           0.00000   0.00000   0.00000   0.00000   0.00000
           A3           0.00000   0.00000   0.00000   0.00000   0.00000
           A4           0.00000   0.00000   0.00000   0.00000   0.00000
           D1           0.00000   0.00000   0.00000   0.00000   0.00000
           D2           0.00000   0.00000   0.00000   0.00000   0.00000
           D3           0.00000   0.00000   0.00000   0.00000   0.00000
                          A2        A3        A4        D1        D2
           A2           0.16000
           A3           0.00000   0.16000
           A4           0.00000   0.00000   0.25000
           D1           0.00000   0.00000   0.00000   0.00230
           D2           0.00000   0.00000   0.00000   0.00000   0.00230
           D3           0.00000   0.00000   0.00000   0.00000   0.00000
                          D3
           D3           0.00230
 ITU=  0
     Eigenvalues ---    0.00230   0.00964   0.02557   0.09028   0.16000
     Eigenvalues ---    0.16000   0.25000   0.44589   0.92671
 RFO step:  Lambda=-2.33011925D-01 EMin= 2.30000000D-03
 Linear search not attempted -- first point.
 Maximum step size (   0.300) exceeded in Quadratic search.
    -- Step size scaled by   0.603
 Iteration  1 RMS(Cart)=  0.08858696 RMS(Int)=  0.01292332
 Iteration  2 RMS(Cart)=  0.01130702 RMS(Int)=  0.00002943
 Iteration  3 RMS(Cart)=  0.00002108 RMS(Int)=  0.00002024
 Iteration  4 RMS(Cart)=  0.00000000 RMS(Int)=  0.00002024
 Variable       Old X    -DE/DX   Delta X   Delta X   Delta X     New X
                                 (Linear)    (Quad)   (Total)
    R1        1.58426   0.46722   0.00000   0.24278   0.24278   1.82704
    R2        3.03006  -0.05372   0.00000  -0.10014  -0.10014   2.92992
    R3        1.92456   0.13903   0.00000   0.12341   0.12341   2.04797
    R4        4.79062  -0.01651   0.00000  -0.03849  -0.03849   4.75213
    A1        2.00217  -0.00650   0.00000  -0.01081  -0.01084   1.99132
    A2        2.43613  -0.00458   0.00000  -0.00798  -0.00802   2.42811
    A3        1.77113   0.00860   0.00000   0.01234   0.01230   1.78343
    A4        1.78829  -0.05053   0.00000  -0.06305  -0.06305   1.72525
    D1        2.81975  -0.00595   0.00000  -0.01478  -0.01476   2.80499
    D2       -2.30597   0.00443   0.00000   0.01158   0.01159  -2.29438
    D3        1.15747   0.01038   0.00000   0.02636   0.02635   1.18382
         Item               Value     Threshold  Converged?
 Maximum Force            0.467224     0.000450     NO 
 RMS     Force            0.148826     0.000300     NO 
 Maximum Displacement     0.159085     0.001800     NO 
 RMS     Displacement     0.094240     0.001200     NO 
 Predicted change in Energy=-1.087151D-01
 GradGradGradGradGradGradGradGradGradGradGradGradGradGradGradGradGradGrad

                          Input orientation:                          
 ---------------------------------------------------------------------
 Center     Atomic      Atomic             Coordinates (Angstroms)
 Number     Number       Type             X           Y           Z
 ---------------------------------------------------------------------
      1          5           0        8.130964    8.369587    0.680738
      2          1           0        9.032338    8.539994    0.986092
      3          1           0        7.333870    9.648425    0.315912
      4          1           0        7.573006    7.597223    0.164382
      5         20           0        5.217082    9.159351    1.582335
 ---------------------------------------------------------------------
                    Distance matrix (angstroms):
                    1          2          3          4          5
     1  B    0.000000
     2  H    0.966827   0.000000
     3  H    1.550446   2.136014   0.000000
     4  H    1.083738   1.921894   2.070647   0.000000
     5  Ca   3.150764   3.910919   2.514719   3.162469   0.000000
 Stoichiometry    BCaH3
 Framework group  C1[X(BCaH3)]
 Deg. of freedom     9
 Full point group                 C1      NOp   1
 Largest Abelian subgroup         C1      NOp   1
 Largest concise Abelian subgroup C1      NOp   1
                         Standard orientation:                         
 ---------------------------------------------------------------------
 Center     Atomic      Atomic             Coordinates (Angstroms)
 Number     Number       Type             X           Y           Z
 ---------------------------------------------------------------------
      1          5           0       -2.264935   -0.043045   -0.051707
      2          1           0       -2.968150    0.390345   -0.554118
      3          1           0       -1.330884    0.936781    0.704184
      4          1           0       -2.085059   -0.977075    0.467640
      5         20           0        0.885439   -0.006741   -0.017959
 ---------------------------------------------------------------------
 Rotational constants (GHZ):         164.1370876           4.8772008           4.8326444
 Standard basis: def2SVP (5D, 7F)
 There are    56 symmetry adapted cartesian basis functions of A   symmetry.
 There are    53 symmetry adapted basis functions of A   symmetry.
    53 basis functions,   111 primitive gaussians,    56 cartesian basis functions
    14 alpha electrons       14 beta electrons
       nuclear repulsion energy        34.7198930990 Hartrees.
 NAtoms=    5 NActive=    5 NUniq=    5 SFac= 1.00D+00 NAtFMM=   60 NAOKFM=F Big=F
 Integral buffers will be    131072 words long.
 Raffenetti 2 integral format.
 Two-electron integral symmetry is turned on.
 ------------------------------------------------------------------------------
 Polarizable Continuum Model (PCM)
 =================================
 Model                : PCM.
 Atomic radii         : UFF (Universal Force Field).
 Polarization charges : Total charges.
 Charge compensation  : None.
 Solution method      : On-the-fly selection.
 Cavity type          : Scaled VdW (van der Waals Surface) (Alpha=1.100).
 Cavity algorithm     : GePol (No added spheres)
                        Default sphere list used, NSphG=    5.
                        Lebedev-Laikov grids with approx.  5.0 points / Ang**2.
                        Smoothing algorithm: York/Karplus (Gamma=1.0000).
                        Polarization charges: spherical gaussians, with
                                              point-specific exponents (IZeta= 3).
                        Self-potential: point-specific (ISelfS= 7).
                        Self-field    : sphere-specific E.n sum rule (ISelfD= 2).
 1st derivatives      : Analytical E(r).r(x)/FMM algorithm (CHGder, D1EAlg=3).
                        Cavity 1st derivative terms included.
 Solvent              : Water, Eps=  78.355300 Eps(inf)=   1.777849
 ------------------------------------------------------------------------------
 Spheres list:
 ISph  on   Nord     Re0    Alpha      Xe            Ye            Ze
    1   B      1    2.0415  1.100     -2.264935     -0.043045     -0.051707
    2   H      2    1.4430  1.100     -2.968150      0.390345     -0.554118
    3   H      3    1.4430  1.100     -1.330884      0.936781      0.704184
    4   H      4    1.4430  1.100     -2.085059     -0.977075      0.467640
    5  Ca      5    1.6995  1.100      0.885439     -0.006741     -0.017959
 ------------------------------------------------------------------------------
 One-electron integrals computed using PRISM.
 PrsmSu:  requested number of processors reduced to:  30 ShMem   1 Linda.
   1 Symmetry operations used in ECPInt.
 ECPInt:  NShTT=     325 NPrTT=    1544 LenC2=     325 LenP2D=    1362.
 LDataN:  DoStor=T MaxTD1= 4 Len=   56
 NBasis=    53 RedAO= T EigKep=  8.31D-03  NBF=    53
 NBsUse=    53 1.00D-06 EigRej= -1.00D+00 NBFU=    53
 Initial guess from the checkpoint file:  "/home/zz1/proj/gauss/new/chk/Ca-ZUMXEN-2/194.chk"
 B after Tr=     0.000000   -0.000000    0.000000
         Rot=    0.998790   -0.049145   -0.000527   -0.001879 Ang=  -5.64 deg.
 ExpMin= 1.98D-02 ExpMax= 3.51D+04 ExpMxC= 5.28D+03 IAcc=3 IRadAn=         5 AccDes= 0.00D+00
 Harris functional with IExCor= 1009 and IRadAn=       5 diagonalized for initial guess.
 HarFok:  IExCor= 1009 AccDes= 0.00D+00 IRadAn=         5 IDoV= 1 UseB2=F ITyADJ=14
 ICtDFT=  3500011 ScaDFX=  1.000000  1.000000  1.000000  1.000000
 FoFCou: FMM=F IPFlag=           0 FMFlag=      100000 FMFlg1=           0
         NFxFlg=           0 DoJE=T BraDBF=F KetDBF=T FulRan=T
         wScrn=  0.000000 ICntrl=       500 IOpCl=  0 I1Cent=   200000004 NGrid=           0
         NMat0=    1 NMatS0=      1 NMatT0=    0 NMatD0=    1 NMtDS0=    0 NMtDT0=    0
 Petite list used in FoFCou.
 Keep R1 ints in memory in canonical form, NReq=44163604.
 Requested convergence on RMS density matrix=1.00D-08 within 128 cycles.
 Requested convergence on MAX density matrix=1.00D-06.
 Requested convergence on             energy=1.00D-06.
 No special actions if energy rises.
 Inv3:  Mode=1 IEnd=     1723692.
 Iteration    1 A*A^-1 deviation from unit magnitude is 2.55D-15 for    205.
 Iteration    1 A*A^-1 deviation from orthogonality  is 2.04D-15 for    728    128.
 Iteration    1 A^-1*A deviation from unit magnitude is 2.78D-15 for    198.
 Iteration    1 A^-1*A deviation from orthogonality  is 1.32D-15 for    402    210.
 CoulSu:  requested number of processors reduced to:  47 ShMem   1 Linda.
 Error on total polarization charges =  0.06820
 SCF Done:  E(RM062X) =  -704.030628514     A.U. after   13 cycles
            NFock= 13  Conv=0.82D-08     -V/T= 2.0021

 **********************************************************************

            Population analysis using the SCF density.

 **********************************************************************

 Orbital symmetries:
       Occupied  (A) (A) (A) (A) (A) (A) (A) (A) (A) (A) (A) (A)
                 (A) (A)
       Virtual   (A) (A) (A) (A) (A) (A) (A) (A) (A) (A) (A) (A)
                 (A) (A) (A) (A) (A) (A) (A) (A) (A) (A) (A) (A)
                 (A) (A) (A) (A) (A) (A) (A) (A) (A) (A) (A) (A)
                 (A) (A) (A)
 The electronic state is 1-A.
 Alpha  occ. eigenvalues -- -146.71523 -15.83521 -12.94736 -12.94729 -12.94702
 Alpha  occ. eigenvalues --   -6.95485  -1.91767  -1.14860  -1.14820  -1.14434
 Alpha  occ. eigenvalues --   -0.51469  -0.38372  -0.28976  -0.12118
 Alpha virt. eigenvalues --    0.00414   0.08502   0.08884   0.09251   0.09661
 Alpha virt. eigenvalues --    0.10003   0.10754   0.11436   0.11676   0.16979
 Alpha virt. eigenvalues --    0.20410   0.23628   0.24412   0.27065   0.27671
 Alpha virt. eigenvalues --    0.28054   0.29213   0.30900   0.34242   0.39774
 Alpha virt. eigenvalues --    0.43740   0.54812   0.68445   0.82480   0.98494
 Alpha virt. eigenvalues --    1.09331   1.17533   1.27969   1.43996   1.57921
 Alpha virt. eigenvalues --    1.63941   1.72173   1.87216   2.10157   2.15531
 Alpha virt. eigenvalues --    2.24231   2.30339   2.99474   3.25809
          Condensed to atoms (all electrons):
               1          2          3          4          5
     1  B    4.319317   0.438446   0.268588   0.443514   0.270914
     2  H    0.438446   0.706630  -0.030408  -0.013608  -0.036117
     3  H    0.268588  -0.030408   0.970526  -0.046973   0.070821
     4  H    0.443514  -0.013608  -0.046973   0.678477   0.002684
     5  Ca   0.270914  -0.036117   0.070821   0.002684  18.589325
 Mulliken charges:
               1
     1  B   -0.740780
     2  H   -0.064943
     3  H   -0.232555
     4  H   -0.064094
     5  Ca   1.102372
 Sum of Mulliken charges =  -0.00000
 Mulliken charges with hydrogens summed into heavy atoms:
               1
     1  B   -1.102372
     5  Ca   1.102372
 Electronic spatial extent (au):  <R**2>=            284.0767
 Charge=             -0.0000 electrons
 Dipole moment (field-independent basis, Debye):
    X=             19.6537    Y=             -0.3330    Z=              2.3618  Tot=             19.7979
 Quadrupole moment (field-independent basis, Debye-Ang):
   XX=            -40.2210   YY=            -27.0497   ZZ=            -30.0185
   XY=              0.5143   XZ=             -0.4549   YZ=             -1.9389
 Traceless Quadrupole moment (field-independent basis, Debye-Ang):
   XX=             -7.7913   YY=              5.3800   ZZ=              2.4113
   XY=              0.5143   XZ=             -0.4549   YZ=             -1.9389
 Octapole moment (field-independent basis, Debye-Ang**2):
  XXX=            114.9070  YYY=             -0.7085  ZZZ=              9.6096  XYY=             22.7140
  XXY=             -1.2307  XXZ=             -2.7506  XZZ=             27.0646  YZZ=             -0.4617
  YYZ=              2.1415  XYZ=              2.2403
 Hexadecapole moment (field-independent basis, Debye-Ang**3):
 XXXX=           -557.1719 YYYY=            -69.6353 ZZZZ=            -78.8756 XXXY=              2.2641
 XXXZ=             11.0984 YYYX=              1.2542 YYYZ=             -5.4050 ZZZX=             -4.8072
 ZZZY=             -5.1059 XXYY=            -88.4976 XXZZ=            -99.0487 YYZZ=            -24.9876
 XXYZ=             -4.6414 YYXZ=              0.0297 ZZXY=              0.6935
 N-N= 3.471989309896D+01 E-N=-1.731666727007D+03  KE= 7.025421050879D+02
 PrsmSu:  requested number of processors reduced to:  30 ShMem   1 Linda.
   1 Symmetry operations used in ECPInt.
 ECPInt:  NShTT=     325 NPrTT=    1544 LenC2=     325 LenP2D=    1362.
 LDataN:  DoStor=T MaxTD1= 5 Len=  102
 Number of processors reduced to  42 by ecpmxn.
 D1PCM: PCM CHGder 1st derivatives, ID1Alg=3 FixD1E=F DoIter=F DoCFld=F I1PDM=0.
 CoulSu:  requested number of processors reduced to:  30 ShMem   1 Linda.
 CoulSu:  requested number of processors reduced to:  31 ShMem   1 Linda.
 Calling FoFJK, ICntrl=      2127 FMM=F ISym2X=0 I1Cent= 0 IOpClX= 0 NMat=1 NMatS=1 NMatT=0.
 ***** Axes restored to original set *****
 -------------------------------------------------------------------
 Center     Atomic                   Forces (Hartrees/Bohr)
 Number     Number              X              Y              Z
 -------------------------------------------------------------------
      1        5          -0.207645301    0.060678646   -0.021768977
      2        1           0.193009379    0.034133642    0.061221211
      3        1           0.025115895   -0.030644486    0.005646791
      4        1          -0.028837044   -0.059726622   -0.042595868
      5       20           0.018357071   -0.004441179   -0.002503157
 -------------------------------------------------------------------
 Cartesian Forces:  Max     0.207645301 RMS     0.080670574

 GradGradGradGradGradGradGradGradGradGradGradGradGradGradGradGradGradGrad
 Berny optimization.
 Using GEDIIS/GDIIS optimizer.
 FormGI is forming the generalized inverse of G from B-inverse, IUseBI=4.
 Internal  Forces:  Max     0.205300142 RMS     0.069980897
 Search for a local minimum.
 Step number   2 out of a maximum of   10
 All quantities printed in internal units (Hartrees-Bohrs-Radians)
 Mixed Optimization -- RFO/linear search
 Update second derivatives using D2CorX and points    1    2
 DE= -1.01D-01 DEPred=-1.09D-01 R= 9.29D-01
 TightC=F SS=  1.41D+00  RLast= 3.02D-01 DXNew= 5.0454D-01 9.0517D-01
 Trust test= 9.29D-01 RLast= 3.02D-01 DXMaxT set to 5.05D-01
 The second derivative matrix:
                          R1        R2        R3        R4        A1
           R1           1.08858
           R2           0.02607   0.08903
           R3           0.02960   0.00644   0.45079
           R4           0.00092  -0.00012   0.00025   0.02556
           A1          -0.00314  -0.00019  -0.00067  -0.00000   0.16004
           A2           0.01772  -0.00027   0.00420  -0.00006  -0.00016
           A3          -0.01094   0.00031  -0.00263   0.00004   0.00009
           A4           0.04974  -0.00221   0.01223  -0.00023  -0.00037
           D1           0.00299  -0.00002   0.00070  -0.00001  -0.00003
           D2           0.00350  -0.00002   0.00082  -0.00001  -0.00003
           D3           0.00050   0.00000   0.00012  -0.00000  -0.00001
                          A2        A3        A4        D1        D2
           A2           0.16015
           A3          -0.00001   0.15996
           A4          -0.00040   0.00051   0.24612
           D1           0.00004  -0.00001  -0.00003   0.00231
           D2           0.00005  -0.00002  -0.00002   0.00001   0.00231
           D3           0.00001  -0.00000   0.00001   0.00000   0.00000
                          D3
           D3           0.00230
 ITU=  1  0
 Use linear search instead of GDIIS.
 Linear search step of   0.600 exceeds DXMaxT=   0.505 but not scaled.
 Quartic linear search produced a step of  2.00000.
 Iteration  1 RMS(Cart)=  0.15271662 RMS(Int)=  0.08701794
 Iteration  2 RMS(Cart)=  0.05732085 RMS(Int)=  0.02538872
 Iteration  3 RMS(Cart)=  0.02245739 RMS(Int)=  0.00012168
 Iteration  4 RMS(Cart)=  0.00003602 RMS(Int)=  0.00011672
 Iteration  5 RMS(Cart)=  0.00000000 RMS(Int)=  0.00011672
 Variable       Old X    -DE/DX   Delta X   Delta X   Delta X     New X
                                 (Linear)    (Quad)   (Total)
    R1        1.82704   0.20530   0.48556   0.00000   0.48556   2.31260
    R2        2.92992  -0.05208  -0.20027   0.00000  -0.20027   2.72965
    R3        2.04797   0.07770   0.24682   0.00000   0.24682   2.29479
    R4        4.75213  -0.01581  -0.07697   0.00000  -0.07697   4.67516
    A1        1.99132  -0.00397  -0.02168   0.00000  -0.02189   1.96943
    A2        2.42811  -0.00817  -0.01605   0.00000  -0.01629   2.41182
    A3        1.78343   0.00968   0.02460   0.00000   0.02439   1.80783
    A4        1.72525  -0.04885  -0.12609   0.00000  -0.12609   1.59916
    D1        2.80499  -0.00673  -0.02953   0.00000  -0.02945   2.77554
    D2       -2.29438   0.00345   0.02317   0.00000   0.02321  -2.27117
    D3        1.18382   0.01019   0.05270   0.00000   0.05266   1.23648
         Item               Value     Threshold  Converged?
 Maximum Force            0.205300     0.000450     NO 
 RMS     Force            0.069981     0.000300     NO 
 Maximum Displacement     0.308253     0.001800     NO 
 RMS     Displacement     0.187244     0.001200     NO 
 Predicted change in Energy=-4.954557D-03
 GradGradGradGradGradGradGradGradGradGradGradGradGradGradGradGradGradGrad

                          Input orientation:                          
 ---------------------------------------------------------------------
 Center     Atomic      Atomic             Coordinates (Angstroms)
 Number     Number       Type             X           Y           Z
 ---------------------------------------------------------------------
      1          5           0        8.019394    8.420837    0.685531
      2          1           0        9.149421    8.612886    1.114232
      3          1           0        7.367142    9.637162    0.259379
      4          1           0        7.409885    7.549755    0.098704
      5         20           0        5.341418    9.093940    1.571613
 ---------------------------------------------------------------------
                    Distance matrix (angstroms):
                    1          2          3          4          5
     1  B    0.000000
     2  H    1.223777   0.000000
     3  H    1.444467   2.226305   0.000000
     4  H    1.214352   2.277615   2.094018   0.000000
     5  Ca   2.899960   3.865424   2.473986   2.971957   0.000000
 Stoichiometry    BCaH3
 Framework group  C1[X(BCaH3)]
 Deg. of freedom     9
 Full point group                 C1      NOp   1
 Largest Abelian subgroup         C1      NOp   1
 Largest concise Abelian subgroup C1      NOp   1
                         Standard orientation:                         
 ---------------------------------------------------------------------
 Center     Atomic      Atomic             Coordinates (Angstroms)
 Number     Number       Type             X           Y           Z
 ---------------------------------------------------------------------
      1          5           0       -2.073177   -0.042642   -0.040973
      2          1           0       -2.948554    0.622509   -0.578484
      3          1           0       -1.337338    0.699785    0.955935
      4          1           0       -1.874905   -1.201595    0.262619
      5         20           0        0.826334    0.004626   -0.021760
 ---------------------------------------------------------------------
 Rotational constants (GHZ):         136.1690677           5.6290935           5.5671457
 Standard basis: def2SVP (5D, 7F)
 There are    56 symmetry adapted cartesian basis functions of A   symmetry.
 There are    53 symmetry adapted basis functions of A   symmetry.
    53 basis functions,   111 primitive gaussians,    56 cartesian basis functions
    14 alpha electrons       14 beta electrons
       nuclear repulsion energy        35.7202083478 Hartrees.
 NAtoms=    5 NActive=    5 NUniq=    5 SFac= 1.00D+00 NAtFMM=   60 NAOKFM=F Big=F
 Integral buffers will be    131072 words long.
 Raffenetti 2 integral format.
 Two-electron integral symmetry is turned on.
 ------------------------------------------------------------------------------
 Polarizable Continuum Model (PCM)
 =================================
 Model                : PCM.
 Atomic radii         : UFF (Universal Force Field).
 Polarization charges : Total charges.
 Charge compensation  : None.
 Solution method      : On-the-fly selection.
 Cavity type          : Scaled VdW (van der Waals Surface) (Alpha=1.100).
 Cavity algorithm     : GePol (No added spheres)
                        Default sphere list used, NSphG=    5.
                        Lebedev-Laikov grids with approx.  5.0 points / Ang**2.
                        Smoothing algorithm: York/Karplus (Gamma=1.0000).
                        Polarization charges: spherical gaussians, with
                                              point-specific exponents (IZeta= 3).
                        Self-potential: point-specific (ISelfS= 7).
                        Self-field    : sphere-specific E.n sum rule (ISelfD= 2).
 1st derivatives      : Analytical E(r).r(x)/FMM algorithm (CHGder, D1EAlg=3).
                        Cavity 1st derivative terms included.
 Solvent              : Water, Eps=  78.355300 Eps(inf)=   1.777849
 ------------------------------------------------------------------------------
 Spheres list:
 ISph  on   Nord     Re0    Alpha      Xe            Ye            Ze
    1   B      1    2.0415  1.100     -2.073177     -0.042642     -0.040973
    2   H      2    1.4430  1.100     -2.948554      0.622509     -0.578484
    3   H      3    1.4430  1.100     -1.337338      0.699785      0.955935
    4   H      4    1.4430  1.100     -1.874905     -1.201595      0.262619
    5  Ca      5    1.6995  1.100      0.826334      0.004626     -0.021760
 ------------------------------------------------------------------------------
 One-electron integrals computed using PRISM.
 PrsmSu:  requested number of processors reduced to:  30 ShMem   1 Linda.
   1 Symmetry operations used in ECPInt.
 ECPInt:  NShTT=     325 NPrTT=    1544 LenC2=     325 LenP2D=    1368.
 LDataN:  DoStor=T MaxTD1= 4 Len=   56
 NBasis=    53 RedAO= T EigKep=  8.90D-03  NBF=    53
 NBsUse=    53 1.00D-06 EigRej= -1.00D+00 NBFU=    53
 Initial guess from the checkpoint file:  "/home/zz1/proj/gauss/new/chk/Ca-ZUMXEN-2/194.chk"
 B after Tr=     0.000000   -0.000000    0.000000
         Rot=    0.992036   -0.125863   -0.000790   -0.004826 Ang= -14.47 deg.
 ExpMin= 1.98D-02 ExpMax= 3.51D+04 ExpMxC= 5.28D+03 IAcc=3 IRadAn=         5 AccDes= 0.00D+00
 Harris functional with IExCor= 1009 and IRadAn=       5 diagonalized for initial guess.
 HarFok:  IExCor= 1009 AccDes= 0.00D+00 IRadAn=         5 IDoV= 1 UseB2=F ITyADJ=14
 ICtDFT=  3500011 ScaDFX=  1.000000  1.000000  1.000000  1.000000
 FoFCou: FMM=F IPFlag=           0 FMFlag=      100000 FMFlg1=           0
         NFxFlg=           0 DoJE=T BraDBF=F KetDBF=T FulRan=T
         wScrn=  0.000000 ICntrl=       500 IOpCl=  0 I1Cent=   200000004 NGrid=           0
         NMat0=    1 NMatS0=      1 NMatT0=    0 NMatD0=    1 NMtDS0=    0 NMtDT0=    0
 Petite list used in FoFCou.
 Keep R1 ints in memory in canonical form, NReq=44163604.
 Requested convergence on RMS density matrix=1.00D-08 within 128 cycles.
 Requested convergence on MAX density matrix=1.00D-06.
 Requested convergence on             energy=1.00D-06.
 No special actions if energy rises.
 Inv3:  Mode=1 IEnd=     1638363.
 Iteration    1 A*A^-1 deviation from unit magnitude is 3.11D-15 for    255.
 Iteration    1 A*A^-1 deviation from orthogonality  is 2.00D-15 for    587    192.
 Iteration    1 A^-1*A deviation from unit magnitude is 2.89D-15 for    612.
 Iteration    1 A^-1*A deviation from orthogonality  is 1.44D-15 for    684    265.
 CoulSu:  requested number of processors reduced to:  47 ShMem   1 Linda.
 Error on total polarization charges =  0.06136
 SCF Done:  E(RM062X) =  -704.095474208     A.U. after   13 cycles
            NFock= 13  Conv=0.81D-08     -V/T= 2.0028

 **********************************************************************

            Population analysis using the SCF density.

 **********************************************************************

 Orbital symmetries:
       Occupied  (A) (A) (A) (A) (A) (A) (A) (A) (A) (A) (A) (A)
                 (A) (A)
       Virtual   (A) (A) (A) (A) (A) (A) (A) (A) (A) (A) (A) (A)
                 (A) (A) (A) (A) (A) (A) (A) (A) (A) (A) (A) (A)
                 (A) (A) (A) (A) (A) (A) (A) (A) (A) (A) (A) (A)
                 (A) (A) (A)
 The electronic state is 1-A.
 Alpha  occ. eigenvalues -- -146.70406 -15.82458 -12.93662 -12.93655 -12.93629
 Alpha  occ. eigenvalues --   -6.97549  -1.90921  -1.14075  -1.14045  -1.13561
 Alpha  occ. eigenvalues --   -0.48880  -0.35077  -0.29809  -0.12643
 Alpha virt. eigenvalues --    0.00392   0.08881   0.09376   0.09658   0.09860
 Alpha virt. eigenvalues --    0.10832   0.10944   0.11543   0.11815   0.17966
 Alpha virt. eigenvalues --    0.21739   0.23146   0.25346   0.27424   0.27912
 Alpha virt. eigenvalues --    0.28380   0.28722   0.30000   0.34787   0.40195
 Alpha virt. eigenvalues --    0.43708   0.55324   0.68602   0.76229   0.83950
 Alpha virt. eigenvalues --    1.08261   1.18063   1.31632   1.32411   1.49536
 Alpha virt. eigenvalues --    1.59303   1.74849   1.75722   1.96803   1.97433
 Alpha virt. eigenvalues --    2.11088   2.23418   2.54432   2.72697
          Condensed to atoms (all electrons):
               1          2          3          4          5
     1  B    4.318644   0.422518   0.296177   0.414207   0.301799
     2  H    0.422518   0.741709  -0.028129  -0.019005  -0.025642
     3  H    0.296177  -0.028129   0.905047  -0.051321   0.062796
     4  H    0.414207  -0.019005  -0.051321   0.736298   0.002816
     5  Ca   0.301799  -0.025642   0.062796   0.002816  18.545869
 Mulliken charges:
               1
     1  B   -0.753344
     2  H   -0.091451
     3  H   -0.184571
     4  H   -0.082995
     5  Ca   1.112361
 Sum of Mulliken charges =  -0.00000
 Mulliken charges with hydrogens summed into heavy atoms:
               1
     1  B   -1.112361
     5  Ca   1.112361
 Electronic spatial extent (au):  <R**2>=            260.9087
 Charge=             -0.0000 electrons
 Dipole moment (field-independent basis, Debye):
    X=             18.9943    Y=             -0.5760    Z=              2.1890  Tot=             19.1287
 Quadrupole moment (field-independent basis, Debye-Ang):
   XX=            -40.7537   YY=            -26.3941   ZZ=            -30.1241
   XY=              0.3141   XZ=             -0.2837   YZ=             -0.4596
 Traceless Quadrupole moment (field-independent basis, Debye-Ang):
   XX=             -8.3297   YY=              6.0299   ZZ=              2.2999
   XY=              0.3141   XZ=             -0.2837   YZ=             -0.4596
 Octapole moment (field-independent basis, Debye-Ang**2):
  XXX=            113.8235  YYY=             -0.9917  ZZZ=              8.3148  XYY=             22.4400
  XXY=             -0.0123  XXZ=             -2.5534  XZZ=             26.7569  YZZ=             -1.2361
  YYZ=              2.2483  XYZ=              0.0491
 Hexadecapole moment (field-independent basis, Debye-Ang**3):
 XXXX=           -528.0127 YYYY=            -65.5920 ZZZZ=            -78.4141 XXXY=             -0.0087
 XXXZ=              8.1332 YYYX=             -0.1828 YYYZ=             -1.2354 ZZZX=             -3.2896
 ZZZY=             -1.4697 XXYY=            -82.6748 XXZZ=            -91.3971 YYZZ=            -24.1348
 XXYZ=              0.6852 YYXZ=             -0.2092 ZZXY=              1.3209
 N-N= 3.572020834780D+01 E-N=-1.733721829308D+03  KE= 7.021483405487D+02
 PrsmSu:  requested number of processors reduced to:  30 ShMem   1 Linda.
   1 Symmetry operations used in ECPInt.
 ECPInt:  NShTT=     325 NPrTT=    1544 LenC2=     325 LenP2D=    1368.
 LDataN:  DoStor=T MaxTD1= 5 Len=  102
 Number of processors reduced to  42 by ecpmxn.
 D1PCM: PCM CHGder 1st derivatives, ID1Alg=3 FixD1E=F DoIter=F DoCFld=F I1PDM=0.
 CoulSu:  requested number of processors reduced to:  30 ShMem   1 Linda.
 CoulSu:  requested number of processors reduced to:  31 ShMem   1 Linda.
 Calling FoFJK, ICntrl=      2127 FMM=F ISym2X=0 I1Cent= 0 IOpClX= 0 NMat=1 NMatS=1 NMatT=0.
 ***** Axes restored to original set *****
 -------------------------------------------------------------------
 Center     Atomic                   Forces (Hartrees/Bohr)
 Number     Number              X              Y              Z
 -------------------------------------------------------------------
      1        5          -0.046525280    0.047978090    0.007805016
      2        1          -0.002115468   -0.007348859   -0.007808720
      3        1           0.021932059   -0.029045083    0.007377840
      4        1           0.011923392   -0.007820831   -0.005284241
      5       20           0.014785297   -0.003763317   -0.002089895
 -------------------------------------------------------------------
 Cartesian Forces:  Max     0.047978090 RMS     0.020807578

 GradGradGradGradGradGradGradGradGradGradGradGradGradGradGradGradGradGrad
 Berny optimization.
 Using GEDIIS/GDIIS optimizer.
 FormGI is forming the generalized inverse of G from B-inverse, IUseBI=4.
 Internal  Forces:  Max     0.045729312 RMS     0.020180831
 Search for a local minimum.
 Step number   3 out of a maximum of   10
 All quantities printed in internal units (Hartrees-Bohrs-Radians)
 Mixed Optimization -- RFO/linear search
 Update second derivatives using D2CorX and points    2    3
 The second derivative matrix:
                          R1        R2        R3        R4        A1
           R1           0.48874
           R2           0.02123   0.08932
           R3          -0.06628   0.00396   0.44430
           R4          -0.00233   0.00003  -0.00123   0.02565
           A1          -0.00166  -0.00001  -0.00130   0.00010   0.16012
           A2           0.01522  -0.00050   0.00492  -0.00019  -0.00027
           A3          -0.00928   0.00035  -0.00254   0.00007   0.00010
           A4           0.04309  -0.00186   0.00908  -0.00004  -0.00015
           D1           0.00357  -0.00011   0.00126  -0.00006  -0.00008
           D2           0.00522  -0.00016   0.00188  -0.00009  -0.00012
           D3           0.00165  -0.00005   0.00061  -0.00003  -0.00004
                          A2        A3        A4        D1        D2
           A2           0.16029
           A3          -0.00003   0.15995
           A4          -0.00070   0.00057   0.24654
           D1           0.00010  -0.00002  -0.00013   0.00233
           D2           0.00016  -0.00004  -0.00018   0.00005   0.00238
           D3           0.00006  -0.00001  -0.00005   0.00002   0.00003
                          D3
           D3           0.00231
 ITU=  0  1  0
 Use linear search instead of GDIIS.
     Eigenvalues ---    0.00231   0.01150   0.02563   0.08786   0.15888
     Eigenvalues ---    0.16015   0.23754   0.40461   0.54038
 RFO step:  Lambda=-4.32694328D-02 EMin= 2.30531318D-03
 Quartic linear search produced a step of  0.28828.
 Maximum step size (   0.505) exceeded in Quadratic search.
    -- Step size scaled by   0.973
 Iteration  1 RMS(Cart)=  0.19456337 RMS(Int)=  0.09132256
 Iteration  2 RMS(Cart)=  0.05645190 RMS(Int)=  0.02771559
 Iteration  3 RMS(Cart)=  0.02510506 RMS(Int)=  0.00320706
 Iteration  4 RMS(Cart)=  0.00021387 RMS(Int)=  0.00320127
 Iteration  5 RMS(Cart)=  0.00000100 RMS(Int)=  0.00320127
 Variable       Old X    -DE/DX   Delta X   Delta X   Delta X     New X
                                 (Linear)    (Quad)   (Total)
    R1        2.31260  -0.00581   0.13998  -0.03944   0.10054   2.41314
    R2        2.72965  -0.04573  -0.05773  -0.40449  -0.46223   2.26742
    R3        2.29479   0.00214   0.07115  -0.00877   0.06238   2.35717
    R4        4.67516  -0.01241  -0.02219  -0.22677  -0.24896   4.42620
    A1        1.96943   0.00065  -0.00631  -0.02083  -0.03217   1.93727
    A2        2.41182  -0.01438  -0.00470  -0.10807  -0.11968   2.29214
    A3        1.80783   0.01106   0.00703   0.03698   0.03886   1.84668
    A4        1.59916  -0.04132  -0.03635  -0.15316  -0.18951   1.40965
    D1        2.77554  -0.00875  -0.00849  -0.19485  -0.20038   2.57516
    D2       -2.27117   0.00034   0.00669   0.03975   0.04792  -2.22325
    D3        1.23648   0.00909   0.01518   0.23460   0.24830   1.48478
         Item               Value     Threshold  Converged?
 Maximum Force            0.045729     0.000450     NO 
 RMS     Force            0.020181     0.000300     NO 
 Maximum Displacement     0.519985     0.001800     NO 
 RMS     Displacement     0.243361     0.001200     NO 
 Predicted change in Energy=-2.104775D-02
 GradGradGradGradGradGradGradGradGradGradGradGradGradGradGradGradGradGrad

                          Input orientation:                          
 ---------------------------------------------------------------------
 Center     Atomic      Atomic             Coordinates (Angstroms)
 Number     Number       Type             X           Y           Z
 ---------------------------------------------------------------------
      1          5           0        7.846148    8.506692    0.706372
      2          1           0        9.005946    8.677311    1.212760
      3          1           0        7.444222    9.518410    0.201832
      4          1           0        7.374362    7.575673    0.023341
      5         20           0        5.616582    9.036494    1.585155
 ---------------------------------------------------------------------
                    Distance matrix (angstroms):
                    1          2          3          4          5
     1  B    0.000000
     2  H    1.276978   0.000000
     3  H    1.199866   2.041667   0.000000
     4  H    1.247361   2.300086   1.952170   0.000000
     5  Ca   2.454367   3.428627   2.342242   2.768223   0.000000
 Stoichiometry    BCaH3
 Framework group  C1[X(BCaH3)]
 Deg. of freedom     9
 Full point group                 C1      NOp   1
 Largest Abelian subgroup         C1      NOp   1
 Largest concise Abelian subgroup C1      NOp   1
                         Standard orientation:                         
 ---------------------------------------------------------------------
 Center     Atomic      Atomic             Coordinates (Angstroms)
 Number     Number       Type             X           Y           Z
 ---------------------------------------------------------------------
      1          5           0       -1.736714   -0.018234   -0.037465
      2          1           0       -2.579292    0.842158   -0.462271
      3          1           0       -1.346815    0.267671    1.060677
      4          1           0       -1.737762   -1.264734   -0.083815
      5         20           0        0.717372    0.012304   -0.016363
 ---------------------------------------------------------------------
 Rotational constants (GHZ):         133.6022581           7.6049649           7.4888753
 Standard basis: def2SVP (5D, 7F)
 There are    56 symmetry adapted cartesian basis functions of A   symmetry.
 There are    53 symmetry adapted basis functions of A   symmetry.
    53 basis functions,   111 primitive gaussians,    56 cartesian basis functions
    14 alpha electrons       14 beta electrons
       nuclear repulsion energy        40.1478944808 Hartrees.
 NAtoms=    5 NActive=    5 NUniq=    5 SFac= 1.00D+00 NAtFMM=   60 NAOKFM=F Big=F
 Integral buffers will be    131072 words long.
 Raffenetti 2 integral format.
 Two-electron integral symmetry is turned on.
 ------------------------------------------------------------------------------
 Polarizable Continuum Model (PCM)
 =================================
 Model                : PCM.
 Atomic radii         : UFF (Universal Force Field).
 Polarization charges : Total charges.
 Charge compensation  : None.
 Solution method      : On-the-fly selection.
 Cavity type          : Scaled VdW (van der Waals Surface) (Alpha=1.100).
 Cavity algorithm     : GePol (No added spheres)
                        Default sphere list used, NSphG=    5.
                        Lebedev-Laikov grids with approx.  5.0 points / Ang**2.
                        Smoothing algorithm: York/Karplus (Gamma=1.0000).
                        Polarization charges: spherical gaussians, with
                                              point-specific exponents (IZeta= 3).
                        Self-potential: point-specific (ISelfS= 7).
                        Self-field    : sphere-specific E.n sum rule (ISelfD= 2).
 1st derivatives      : Analytical E(r).r(x)/FMM algorithm (CHGder, D1EAlg=3).
                        Cavity 1st derivative terms included.
 Solvent              : Water, Eps=  78.355300 Eps(inf)=   1.777849
 ------------------------------------------------------------------------------
 Spheres list:
 ISph  on   Nord     Re0    Alpha      Xe            Ye            Ze
    1   B      1    2.0415  1.100     -1.736714     -0.018234     -0.037465
    2   H      2    1.4430  1.100     -2.579292      0.842158     -0.462271
    3   H      3    1.4430  1.100     -1.346815      0.267671      1.060677
    4   H      4    1.4430  1.100     -1.737762     -1.264734     -0.083815
    5  Ca      5    1.6995  1.100      0.717372      0.012304     -0.016363
 ------------------------------------------------------------------------------
 One-electron integrals computed using PRISM.
 PrsmSu:  requested number of processors reduced to:  30 ShMem   1 Linda.
   1 Symmetry operations used in ECPInt.
 ECPInt:  NShTT=     325 NPrTT=    1544 LenC2=     326 LenP2D=    1394.
 LDataN:  DoStor=T MaxTD1= 4 Len=   56
 NBasis=    53 RedAO= T EigKep=  3.64D-03  NBF=    53
 NBsUse=    53 1.00D-06 EigRej= -1.00D+00 NBFU=    53
 Initial guess from the checkpoint file:  "/home/zz1/proj/gauss/new/chk/Ca-ZUMXEN-2/194.chk"
 B after Tr=    -0.000000   -0.000000   -0.000000
         Rot=    0.987951   -0.154685    0.004993    0.000576 Ang= -17.81 deg.
 ExpMin= 1.98D-02 ExpMax= 3.51D+04 ExpMxC= 5.28D+03 IAcc=3 IRadAn=         5 AccDes= 0.00D+00
 Harris functional with IExCor= 1009 and IRadAn=       5 diagonalized for initial guess.
 HarFok:  IExCor= 1009 AccDes= 0.00D+00 IRadAn=         5 IDoV= 1 UseB2=F ITyADJ=14
 ICtDFT=  3500011 ScaDFX=  1.000000  1.000000  1.000000  1.000000
 FoFCou: FMM=F IPFlag=           0 FMFlag=      100000 FMFlg1=           0
         NFxFlg=           0 DoJE=T BraDBF=F KetDBF=T FulRan=T
         wScrn=  0.000000 ICntrl=       500 IOpCl=  0 I1Cent=   200000004 NGrid=           0
         NMat0=    1 NMatS0=      1 NMatT0=    0 NMatD0=    1 NMtDS0=    0 NMtDT0=    0
 Petite list used in FoFCou.
 Keep R1 ints in memory in canonical form, NReq=44163604.
 Requested convergence on RMS density matrix=1.00D-08 within 128 cycles.
 Requested convergence on MAX density matrix=1.00D-06.
 Requested convergence on             energy=1.00D-06.
 No special actions if energy rises.
 Inv3:  Mode=1 IEnd=     1491075.
 Iteration    1 A*A^-1 deviation from unit magnitude is 3.55D-15 for    375.
 Iteration    1 A*A^-1 deviation from orthogonality  is 1.11D-15 for    464    193.
 Iteration    1 A^-1*A deviation from unit magnitude is 3.33D-15 for    375.
 Iteration    1 A^-1*A deviation from orthogonality  is 3.22D-12 for    683    570.
 CoulSu:  requested number of processors reduced to:  47 ShMem   1 Linda.
 Error on total polarization charges =  0.05327
 SCF Done:  E(RM062X) =  -704.110490553     A.U. after   13 cycles
            NFock= 13  Conv=0.81D-08     -V/T= 2.0023

 **********************************************************************

            Population analysis using the SCF density.

 **********************************************************************

 Orbital symmetries:
       Occupied  (A) (A) (A) (A) (A) (A) (A) (A) (A) (A) (A) (A)
                 (A) (A)
       Virtual   (A) (A) (A) (A) (A) (A) (A) (A) (A) (A) (A) (A)
                 (A) (A) (A) (A) (A) (A) (A) (A) (A) (A) (A) (A)
                 (A) (A) (A) (A) (A) (A) (A) (A) (A) (A) (A) (A)
                 (A) (A) (A)
 The electronic state is 1-A.
 Alpha  occ. eigenvalues -- -146.66871 -15.79129 -12.90294 -12.90289 -12.90260
 Alpha  occ. eigenvalues --   -6.94315  -1.88391  -1.11722  -1.11672  -1.11120
 Alpha  occ. eigenvalues --   -0.50002  -0.33162  -0.31398  -0.13361
 Alpha virt. eigenvalues --    0.00485   0.09549   0.10045   0.10539   0.10640
 Alpha virt. eigenvalues --    0.11818   0.12112   0.12408   0.13538   0.19654
 Alpha virt. eigenvalues --    0.23540   0.26165   0.26878   0.28365   0.28819
 Alpha virt. eigenvalues --    0.29372   0.29702   0.31024   0.39832   0.40318
 Alpha virt. eigenvalues --    0.45549   0.57523   0.71788   0.79407   0.84758
 Alpha virt. eigenvalues --    1.09541   1.19943   1.35493   1.39362   1.56016
 Alpha virt. eigenvalues --    1.62373   1.76561   1.88032   1.91054   2.01381
 Alpha virt. eigenvalues --    2.22525   2.48451   2.51145   2.62843
          Condensed to atoms (all electrons):
               1          2          3          4          5
     1  B    4.303641   0.423416   0.341768   0.399599   0.319234
     2  H    0.423416   0.795857  -0.038186  -0.018901  -0.028151
     3  H    0.341768  -0.038186   0.789412  -0.062193   0.062220
     4  H    0.399599  -0.018901  -0.062193   0.772821   0.010418
     5  Ca   0.319234  -0.028151   0.062220   0.010418  18.519820
 Mulliken charges:
               1
     1  B   -0.787658
     2  H   -0.134035
     3  H   -0.093021
     4  H   -0.101744
     5  Ca   1.116458
 Sum of Mulliken charges =  -0.00000
 Mulliken charges with hydrogens summed into heavy atoms:
               1
     1  B   -1.116458
     5  Ca   1.116458
 Electronic spatial extent (au):  <R**2>=            213.5776
 Charge=             -0.0000 electrons
 Dipole moment (field-independent basis, Debye):
    X=             16.8250    Y=             -0.6711    Z=              2.2321  Tot=             16.9857
 Quadrupole moment (field-independent basis, Debye-Ang):
   XX=            -38.7540   YY=            -25.8335   ZZ=            -27.6569
   XY=              0.1521   XZ=             -0.8452   YZ=              0.7409
 Traceless Quadrupole moment (field-independent basis, Debye-Ang):
   XX=             -8.0058   YY=              4.9146   ZZ=              3.0912
   XY=              0.1521   XZ=             -0.8452   YZ=              0.7409
 Octapole moment (field-independent basis, Debye-Ang**2):
  XXX=             93.8108  YYY=             -1.2857  ZZZ=              7.7172  XYY=             20.3179
  XXY=              0.3300  XXZ=             -0.2524  XZZ=             21.0833  YZZ=             -1.1972
  YYZ=              2.9567  XYZ=             -1.1505
 Hexadecapole moment (field-independent basis, Debye-Ang**3):
 XXXX=           -410.5756 YYYY=            -62.5011 ZZZZ=            -64.9589 XXXY=              0.5910
 XXXZ=              0.6287 YYYX=             -0.7480 YYYZ=              1.8320 ZZZX=             -3.6231
 ZZZY=              1.8597 XXYY=            -68.4206 XXZZ=            -67.9956 YYZZ=            -21.1299
 XXYZ=              2.8982 YYXZ=             -1.7963 ZZXY=              0.8818
 N-N= 4.014789448082D+01 E-N=-1.743745594937D+03  KE= 7.025189429568D+02
 PrsmSu:  requested number of processors reduced to:  30 ShMem   1 Linda.
   1 Symmetry operations used in ECPInt.
 ECPInt:  NShTT=     325 NPrTT=    1544 LenC2=     326 LenP2D=    1394.
 LDataN:  DoStor=T MaxTD1= 5 Len=  102
 Number of processors reduced to  42 by ecpmxn.
 D1PCM: PCM CHGder 1st derivatives, ID1Alg=3 FixD1E=F DoIter=F DoCFld=F I1PDM=0.
 CoulSu:  requested number of processors reduced to:  30 ShMem   1 Linda.
 CoulSu:  requested number of processors reduced to:  31 ShMem   1 Linda.
 Calling FoFJK, ICntrl=      2127 FMM=F ISym2X=0 I1Cent= 0 IOpClX= 0 NMat=1 NMatS=1 NMatT=0.
 ***** Axes restored to original set *****
 -------------------------------------------------------------------
 Center     Atomic                   Forces (Hartrees/Bohr)
 Number     Number              X              Y              Z
 -------------------------------------------------------------------
      1        5           0.015269889   -0.007199344    0.018732193
      2        1          -0.012467934   -0.011574511   -0.016497423
      3        1          -0.002861567    0.017695298   -0.009284367
      4        1           0.013862080   -0.001010844    0.002579969
      5       20          -0.013802469    0.002089400    0.004469628
 -------------------------------------------------------------------
 Cartesian Forces:  Max     0.018732193 RMS     0.011603669

 GradGradGradGradGradGradGradGradGradGradGradGradGradGradGradGradGradGrad
 Berny optimization.
 Using GEDIIS/GDIIS optimizer.
 FormGI is forming the generalized inverse of G from B-inverse, IUseBI=4.
 Internal  Forces:  Max     0.030001390 RMS     0.015243547
 Search for a local minimum.
 Step number   4 out of a maximum of   10
 All quantities printed in internal units (Hartrees-Bohrs-Radians)
 Mixed Optimization -- RFO/linear search
 Update second derivatives using D2CorX and points    3    4
 DE= -1.50D-02 DEPred=-2.10D-02 R= 7.13D-01
 TightC=F SS=  1.41D+00  RLast= 6.68D-01 DXNew= 8.4853D-01 2.0047D+00
 Trust test= 7.13D-01 RLast= 6.68D-01 DXMaxT set to 8.49D-01
 The second derivative matrix:
                          R1        R2        R3        R4        A1
           R1           0.47272
           R2           0.03348   0.13264
           R3          -0.07737   0.01368   0.43665
           R4          -0.00339   0.02401  -0.00142   0.03575
           A1           0.00168  -0.00244   0.00102   0.00038   0.15943
           A2           0.02831  -0.02116   0.01374  -0.00400  -0.00303
           A3          -0.01234   0.00276  -0.00466  -0.00010   0.00074
           A4           0.05683   0.04027   0.01983   0.02401  -0.00290
           D1           0.00379  -0.00141   0.00139  -0.00054  -0.00013
           D2           0.00654  -0.00931   0.00260  -0.00358  -0.00041
           D3           0.00274  -0.00791   0.00121  -0.00304  -0.00028
                          A2        A3        A4        D1        D2
           A2           0.15173
           A3           0.00246   0.15937
           A4          -0.02257   0.00327   0.28734
           D1           0.00015   0.00002  -0.00145   0.00235
           D2           0.00073   0.00020  -0.00946   0.00021   0.00353
           D3           0.00058   0.00019  -0.00801   0.00015   0.00103
                          D3
           D3           0.00317
 ITU=  1  0  1  0
 Use linear search instead of GDIIS.
     Eigenvalues ---    0.00244   0.01922   0.02873   0.11972   0.15181
     Eigenvalues ---    0.16045   0.27665   0.40508   0.54045
 RFO step:  Lambda=-1.10382353D-02 EMin= 2.43864806D-03
 Quartic linear search produced a step of -0.22321.
 Iteration  1 RMS(Cart)=  0.15062907 RMS(Int)=  0.03840148
 Iteration  2 RMS(Cart)=  0.03635521 RMS(Int)=  0.00908353
 Iteration  3 RMS(Cart)=  0.00126357 RMS(Int)=  0.00898525
 Iteration  4 RMS(Cart)=  0.00002337 RMS(Int)=  0.00898523
 Iteration  5 RMS(Cart)=  0.00000071 RMS(Int)=  0.00898523
 Variable       Old X    -DE/DX   Delta X   Delta X   Delta X     New X
                                 (Linear)    (Quad)   (Total)
    R1        2.41314  -0.01942  -0.02244  -0.01882  -0.04126   2.37188
    R2        2.26742   0.02438   0.10318  -0.02050   0.08267   2.35009
    R3        2.35717  -0.00588  -0.01392  -0.00385  -0.01777   2.33940
    R4        4.42620   0.01293   0.05557   0.07094   0.12651   4.55271
    A1        1.93727   0.00364   0.00718  -0.05719  -0.06022   1.87705
    A2        2.29214  -0.01532   0.02672  -0.19638  -0.19100   2.10114
    A3        1.84668   0.00854  -0.00867  -0.01294  -0.03240   1.81428
    A4        1.40965   0.03000   0.04230   0.02691   0.06921   1.47886
    D1        2.57516  -0.00984   0.04473  -0.38563  -0.32900   2.24616
    D2       -2.22325  -0.00779  -0.01070  -0.10464  -0.10939  -2.33263
    D3        1.48478   0.00206  -0.05542   0.28099   0.21961   1.70439
         Item               Value     Threshold  Converged?
 Maximum Force            0.030001     0.000450     NO 
 RMS     Force            0.015244     0.000300     NO 
 Maximum Displacement     0.341455     0.001800     NO 
 RMS     Displacement     0.178356     0.001200     NO 
 Predicted change in Energy=-7.049850D-03
 GradGradGradGradGradGradGradGradGradGradGradGradGradGradGradGradGradGrad

                          Input orientation:                          
 ---------------------------------------------------------------------
 Center     Atomic      Atomic             Coordinates (Angstroms)
 Number     Number       Type             X           Y           Z
 ---------------------------------------------------------------------
      1          5           0        7.829819    8.449470    0.775535
      2          1           0        9.020968    8.653873    1.114314
      3          1           0        7.407635    9.490756    0.242561
      4          1           0        7.555052    7.562542   -0.043244
      5         20           0        5.473786    9.157938    1.640293
 ---------------------------------------------------------------------
                    Distance matrix (angstroms):
                    1          2          3          4          5
     1  B    0.000000
     2  H    1.255145   0.000000
     3  H    1.243615   2.015731   0.000000
     4  H    1.237957   2.163297   1.954847   0.000000
     5  Ca   2.607800   3.621220   2.409189   3.116289   0.000000
 Stoichiometry    BCaH3
 Framework group  C1[X(BCaH3)]
 Deg. of freedom     9
 Full point group                 C1      NOp   1
 Largest Abelian subgroup         C1      NOp   1
 Largest concise Abelian subgroup C1      NOp   1
                         Standard orientation:                         
 ---------------------------------------------------------------------
 Center     Atomic      Atomic             Coordinates (Angstroms)
 Number     Number       Type             X           Y           Z
 ---------------------------------------------------------------------
      1          5           0       -1.836822   -0.003530   -0.080189
      2          1           0       -2.741653    0.824430   -0.346933
      3          1           0       -1.378044    0.289672    1.037904
      4          1           0       -2.099172   -1.209863    0.011847
      5         20           0        0.770149    0.005671   -0.015094
 ---------------------------------------------------------------------
 Rotational constants (GHZ):         143.7868602           6.6748964           6.5898649
 Standard basis: def2SVP (5D, 7F)
 There are    56 symmetry adapted cartesian basis functions of A   symmetry.
 There are    53 symmetry adapted basis functions of A   symmetry.
    53 basis functions,   111 primitive gaussians,    56 cartesian basis functions
    14 alpha electrons       14 beta electrons
       nuclear repulsion energy        38.1546769813 Hartrees.
 NAtoms=    5 NActive=    5 NUniq=    5 SFac= 1.00D+00 NAtFMM=   60 NAOKFM=F Big=F
 Integral buffers will be    131072 words long.
 Raffenetti 2 integral format.
 Two-electron integral symmetry is turned on.
 ------------------------------------------------------------------------------
 Polarizable Continuum Model (PCM)
 =================================
 Model                : PCM.
 Atomic radii         : UFF (Universal Force Field).
 Polarization charges : Total charges.
 Charge compensation  : None.
 Solution method      : On-the-fly selection.
 Cavity type          : Scaled VdW (van der Waals Surface) (Alpha=1.100).
 Cavity algorithm     : GePol (No added spheres)
                        Default sphere list used, NSphG=    5.
                        Lebedev-Laikov grids with approx.  5.0 points / Ang**2.
                        Smoothing algorithm: York/Karplus (Gamma=1.0000).
                        Polarization charges: spherical gaussians, with
                                              point-specific exponents (IZeta= 3).
                        Self-potential: point-specific (ISelfS= 7).
                        Self-field    : sphere-specific E.n sum rule (ISelfD= 2).
 1st derivatives      : Analytical E(r).r(x)/FMM algorithm (CHGder, D1EAlg=3).
                        Cavity 1st derivative terms included.
 Solvent              : Water, Eps=  78.355300 Eps(inf)=   1.777849
 ------------------------------------------------------------------------------
 Spheres list:
 ISph  on   Nord     Re0    Alpha      Xe            Ye            Ze
    1   B      1    2.0415  1.100     -1.836822     -0.003530     -0.080189
    2   H      2    1.4430  1.100     -2.741653      0.824430     -0.346933
    3   H      3    1.4430  1.100     -1.378044      0.289672      1.037904
    4   H      4    1.4430  1.100     -2.099172     -1.209863      0.011847
    5  Ca      5    1.6995  1.100      0.770149      0.005671     -0.015094
 ------------------------------------------------------------------------------
 One-electron integrals computed using PRISM.
 PrsmSu:  requested number of processors reduced to:  30 ShMem   1 Linda.
   1 Symmetry operations used in ECPInt.
 ECPInt:  NShTT=     325 NPrTT=    1544 LenC2=     326 LenP2D=    1377.
 LDataN:  DoStor=T MaxTD1= 4 Len=   56
 NBasis=    53 RedAO= T EigKep=  4.80D-03  NBF=    53
 NBsUse=    53 1.00D-06 EigRej= -1.00D+00 NBFU=    53
 Initial guess from the checkpoint file:  "/home/zz1/proj/gauss/new/chk/Ca-ZUMXEN-2/194.chk"
 B after Tr=    -0.000000    0.000000    0.000000
         Rot=    0.999944    0.007287   -0.001435    0.007598 Ang=   1.22 deg.
 ExpMin= 1.98D-02 ExpMax= 3.51D+04 ExpMxC= 5.28D+03 IAcc=3 IRadAn=         5 AccDes= 0.00D+00
 Harris functional with IExCor= 1009 and IRadAn=       5 diagonalized for initial guess.
 HarFok:  IExCor= 1009 AccDes= 0.00D+00 IRadAn=         5 IDoV= 1 UseB2=F ITyADJ=14
 ICtDFT=  3500011 ScaDFX=  1.000000  1.000000  1.000000  1.000000
 FoFCou: FMM=F IPFlag=           0 FMFlag=      100000 FMFlg1=           0
         NFxFlg=           0 DoJE=T BraDBF=F KetDBF=T FulRan=T
         wScrn=  0.000000 ICntrl=       500 IOpCl=  0 I1Cent=   200000004 NGrid=           0
         NMat0=    1 NMatS0=      1 NMatT0=    0 NMatD0=    1 NMtDS0=    0 NMtDT0=    0
 Petite list used in FoFCou.
 Keep R1 ints in memory in canonical form, NReq=44163604.
 Requested convergence on RMS density matrix=1.00D-08 within 128 cycles.
 Requested convergence on MAX density matrix=1.00D-06.
 Requested convergence on             energy=1.00D-06.
 No special actions if energy rises.
 Inv3:  Mode=1 IEnd=     1533675.
 Iteration    1 A*A^-1 deviation from unit magnitude is 3.11D-15 for    484.
 Iteration    1 A*A^-1 deviation from orthogonality  is 1.39D-15 for    435    234.
 Iteration    1 A^-1*A deviation from unit magnitude is 2.89D-15 for    484.
 Iteration    1 A^-1*A deviation from orthogonality  is 1.80D-15 for    676    196.
 CoulSu:  requested number of processors reduced to:  47 ShMem   1 Linda.
 Error on total polarization charges =  0.05300
 SCF Done:  E(RM062X) =  -704.118955986     A.U. after   12 cycles
            NFock= 12  Conv=0.71D-08     -V/T= 2.0025

 **********************************************************************

            Population analysis using the SCF density.

 **********************************************************************

 Orbital symmetries:
       Occupied  (A) (A) (A) (A) (A) (A) (A) (A) (A) (A) (A) (A)
                 (A) (A)
       Virtual   (A) (A) (A) (A) (A) (A) (A) (A) (A) (A) (A) (A)
                 (A) (A) (A) (A) (A) (A) (A) (A) (A) (A) (A) (A)
                 (A) (A) (A) (A) (A) (A) (A) (A) (A) (A) (A) (A)
                 (A) (A) (A)
 The electronic state is 1-A.
 Alpha  occ. eigenvalues -- -146.68595 -15.80744 -12.91933 -12.91922 -12.91899
 Alpha  occ. eigenvalues --   -6.94593  -1.89590  -1.12843  -1.12815  -1.12229
 Alpha  occ. eigenvalues --   -0.49680  -0.32034  -0.30804  -0.14084
 Alpha virt. eigenvalues --    0.00512   0.09307   0.09811   0.10017   0.10445
 Alpha virt. eigenvalues --    0.11140   0.11752   0.12068   0.12761   0.19489
 Alpha virt. eigenvalues --    0.24311   0.25441   0.27454   0.27682   0.28344
 Alpha virt. eigenvalues --    0.28795   0.29039   0.30533   0.37526   0.40818
 Alpha virt. eigenvalues --    0.44972   0.57224   0.72975   0.78333   0.85348
 Alpha virt. eigenvalues --    1.06486   1.20644   1.30511   1.47160   1.57707
 Alpha virt. eigenvalues --    1.62544   1.74426   1.82095   1.94980   2.09579
 Alpha virt. eigenvalues --    2.18435   2.45352   2.52949   2.54742
          Condensed to atoms (all electrons):
               1          2          3          4          5
     1  B    4.256324   0.418783   0.325743   0.410575   0.350982
     2  H    0.418783   0.812400  -0.038553  -0.030478  -0.026604
     3  H    0.325743  -0.038553   0.832163  -0.055839   0.058709
     4  H    0.410575  -0.030478  -0.055839   0.808056  -0.006180
     5  Ca   0.350982  -0.026604   0.058709  -0.006180  18.476780
 Mulliken charges:
               1
     1  B   -0.762407
     2  H   -0.135548
     3  H   -0.122224
     4  H   -0.126134
     5  Ca   1.146313
 Sum of Mulliken charges =  -0.00000
 Mulliken charges with hydrogens summed into heavy atoms:
               1
     1  B   -1.146313
     5  Ca   1.146313
 Electronic spatial extent (au):  <R**2>=            234.0135
 Charge=             -0.0000 electrons
 Dipole moment (field-independent basis, Debye):
    X=             18.1190    Y=             -0.4150    Z=              2.8759  Tot=             18.3505
 Quadrupole moment (field-independent basis, Debye-Ang):
   XX=            -39.2647   YY=            -25.8934   ZZ=            -28.5695
   XY=              0.2229   XZ=             -1.8167   YZ=              0.3476
 Traceless Quadrupole moment (field-independent basis, Debye-Ang):
   XX=             -8.0222   YY=              5.3491   ZZ=              2.6730
   XY=              0.2229   XZ=             -1.8167   YZ=              0.3476
 Octapole moment (field-independent basis, Debye-Ang**2):
  XXX=            102.2274  YYY=             -0.4158  ZZZ=              9.9085  XYY=             22.2356
  XXY=             -0.4280  XXZ=              1.9014  XZZ=             23.4822  YZZ=             -0.9581
  YYZ=              3.5586  XYZ=             -0.7367
 Hexadecapole moment (field-independent basis, Debye-Ang**3):
 XXXX=           -452.4262 YYYY=            -61.5545 ZZZZ=            -69.0285 XXXY=              2.5318
 XXXZ=             -4.5880 YYYX=             -0.7641 YYYZ=              0.9195 ZZZX=             -6.8083
 ZZZY=              0.8381 XXYY=            -75.9925 XXZZ=            -75.9067 YYZZ=            -21.6182
 XXYZ=              2.1602 YYXZ=             -2.7874 ZZXY=              1.0618
 N-N= 3.815467698129D+01 E-N=-1.739298443878D+03  KE= 7.023768994432D+02
 PrsmSu:  requested number of processors reduced to:  30 ShMem   1 Linda.
   1 Symmetry operations used in ECPInt.
 ECPInt:  NShTT=     325 NPrTT=    1544 LenC2=     326 LenP2D=    1377.
 LDataN:  DoStor=T MaxTD1= 5 Len=  102
 Number of processors reduced to  42 by ecpmxn.
 D1PCM: PCM CHGder 1st derivatives, ID1Alg=3 FixD1E=F DoIter=F DoCFld=F I1PDM=0.
 CoulSu:  requested number of processors reduced to:  30 ShMem   1 Linda.
[...]
                        Self-potential: point-specific (ISelfS= 7).
                        Self-field    : sphere-specific E.n sum rule (ISelfD= 2).
 1st derivatives      : Analytical E(r).r(x)/FMM algorithm (CHGder, D1EAlg=3).
                        Cavity 1st derivative terms included.
 Solvent              : Water, Eps=  78.355300 Eps(inf)=   1.777849
 ------------------------------------------------------------------------------
 Spheres list:
 ISph  on   Nord     Re0    Alpha      Xe            Ye            Ze
    1   B      1    2.0415  1.100     -1.819514     -0.001041     -0.062320
    2   H      2    1.4430  1.100     -2.425120      1.070404     -0.198143
    3   H      3    1.4430  1.100     -1.475406     -0.094949      1.134516
    4   H      4    1.4430  1.100     -2.561507     -0.958573     -0.333119
    5  Ca      5    1.6995  1.100      0.777980     -0.000584     -0.014583
 ------------------------------------------------------------------------------
 One-electron integrals computed using PRISM.
 PrsmSu:  requested number of processors reduced to:  30 ShMem   1 Linda.
   1 Symmetry operations used in ECPInt.
 ECPInt:  NShTT=     325 NPrTT=    1544 LenC2=     326 LenP2D=    1374.
 LDataN:  DoStor=T MaxTD1= 4 Len=   56
 NBasis=    53 RedAO= T EigKep=  5.03D-03  NBF=    53
 NBsUse=    53 1.00D-06 EigRej= -1.00D+00 NBFU=    53
 Initial guess from the checkpoint file:  "/home/zz1/proj/gauss/new/chk/Ca-ZUMXEN-2/194.chk"
 B after Tr=     0.000000    0.000000    0.000000
         Rot=    0.999989    0.004759    0.000525   -0.000136 Ang=   0.55 deg.
 ExpMin= 1.98D-02 ExpMax= 3.51D+04 ExpMxC= 5.28D+03 IAcc=3 IRadAn=         5 AccDes= 0.00D+00
 Harris functional with IExCor= 1009 and IRadAn=       5 diagonalized for initial guess.
 HarFok:  IExCor= 1009 AccDes= 0.00D+00 IRadAn=         5 IDoV= 1 UseB2=F ITyADJ=14
 ICtDFT=  3500011 ScaDFX=  1.000000  1.000000  1.000000  1.000000
 FoFCou: FMM=F IPFlag=           0 FMFlag=      100000 FMFlg1=           0
         NFxFlg=           0 DoJE=T BraDBF=F KetDBF=T FulRan=T
         wScrn=  0.000000 ICntrl=       500 IOpCl=  0 I1Cent=   200000004 NGrid=           0
         NMat0=    1 NMatS0=      1 NMatT0=    0 NMatD0=    1 NMtDS0=    0 NMtDT0=    0
 Petite list used in FoFCou.
 Keep R1 ints in memory in canonical form, NReq=44163604.
 Requested convergence on RMS density matrix=1.00D-08 within 128 cycles.
 Requested convergence on MAX density matrix=1.00D-06.
 Requested convergence on             energy=1.00D-06.
 No special actions if energy rises.
 Inv3:  Mode=1 IEnd=     1529388.
 Iteration    1 A*A^-1 deviation from unit magnitude is 2.89D-15 for    237.
 Iteration    1 A*A^-1 deviation from orthogonality  is 1.72D-15 for    605      5.
 Iteration    1 A^-1*A deviation from unit magnitude is 2.44D-15 for     51.
 Iteration    1 A^-1*A deviation from orthogonality  is 1.75D-15 for    566    467.
 CoulSu:  requested number of processors reduced to:  47 ShMem   1 Linda.
 Error on total polarization charges =  0.05164
 SCF Done:  E(RM062X) =  -704.121401808     A.U. after   10 cycles
            NFock= 10  Conv=0.46D-08     -V/T= 2.0024

 **********************************************************************

            Population analysis using the SCF density.

 **********************************************************************

 Orbital symmetries:
       Occupied  (A) (A) (A) (A) (A) (A) (A) (A) (A) (A) (A) (A)
                 (A) (A)
       Virtual   (A) (A) (A) (A) (A) (A) (A) (A) (A) (A) (A) (A)
                 (A) (A) (A) (A) (A) (A) (A) (A) (A) (A) (A) (A)
                 (A) (A) (A) (A) (A) (A) (A) (A) (A) (A) (A) (A)
                 (A) (A) (A)
 The electronic state is 1-A.
 Alpha  occ. eigenvalues -- -146.68354 -15.80536 -12.91713 -12.91708 -12.91685
 Alpha  occ. eigenvalues --   -6.94018  -1.89425  -1.12664  -1.12651  -1.12039
 Alpha  occ. eigenvalues --   -0.49318  -0.31229  -0.30529  -0.14420
 Alpha virt. eigenvalues --    0.00650   0.09494   0.09617   0.10076   0.10599
 Alpha virt. eigenvalues --    0.10950   0.11912   0.12175   0.12686   0.20312
 Alpha virt. eigenvalues --    0.25580   0.25755   0.27138   0.28140   0.28629
 Alpha virt. eigenvalues --    0.28855   0.29059   0.30366   0.38640   0.41085
 Alpha virt. eigenvalues --    0.43307   0.54947   0.74902   0.76992   0.86236
 Alpha virt. eigenvalues --    1.07482   1.19814   1.29876   1.55793   1.57293
 Alpha virt. eigenvalues --    1.59373   1.75958   1.78160   1.98347   2.14917
 Alpha virt. eigenvalues --    2.15631   2.44551   2.53265   2.55116
          Condensed to atoms (all electrons):
               1          2          3          4          5
     1  B    4.264408   0.412934   0.336297   0.415740   0.352187
     2  H    0.412934   0.826178  -0.043311  -0.043090  -0.014060
     3  H    0.336297  -0.043311   0.832278  -0.040187   0.041619
     4  H    0.415740  -0.043090  -0.040187   0.825265  -0.017518
     5  Ca   0.352187  -0.014060   0.041619  -0.017518  18.450649
 Mulliken charges:
               1
     1  B   -0.781566
     2  H   -0.138651
     3  H   -0.126697
     4  H   -0.140210
     5  Ca   1.187123
 Sum of Mulliken charges =  -0.00000
 Mulliken charges with hydrogens summed into heavy atoms:
               1
     1  B   -1.187123
     5  Ca   1.187123
 Electronic spatial extent (au):  <R**2>=            236.6929
 Charge=             -0.0000 electrons
 Dipole moment (field-independent basis, Debye):
    X=             18.2532    Y=              0.0621    Z=              2.5167  Tot=             18.4260
 Quadrupole moment (field-independent basis, Debye-Ang):
   XX=            -39.6055   YY=            -26.0232   ZZ=            -27.8825
   XY=             -0.0363   XZ=             -1.5128   YZ=             -0.0467
 Traceless Quadrupole moment (field-independent basis, Debye-Ang):
   XX=             -8.4351   YY=              5.1472   ZZ=              3.2879
   XY=             -0.0363   XZ=             -1.5128   YZ=             -0.0467
 Octapole moment (field-independent basis, Debye-Ang**2):
  XXX=            103.4444  YYY=             -0.0837  ZZZ=              7.8717  XYY=             22.8022
  XXY=              0.1450  XXZ=              1.4638  XZZ=             22.8608  YZZ=              0.2599
  YYZ=              3.4382  XYZ=              0.1874
 Hexadecapole moment (field-independent basis, Debye-Ang**3):
 XXXX=           -457.5201 YYYY=            -60.9504 ZZZZ=            -66.7921 XXXY=             -0.7323
 XXXZ=             -3.4122 YYYX=              0.3897 YYYZ=             -0.1352 ZZZX=             -4.5185
 ZZZY=             -0.0795 XXYY=            -78.1528 XXZZ=            -75.1745 YYZZ=            -21.1074
 XXYZ=             -0.6267 YYXZ=             -3.0143 ZZXY=             -0.3658
 N-N= 3.788513353859D+01 E-N=-1.738861502044D+03  KE= 7.024063251587D+02
 PrsmSu:  requested number of processors reduced to:  30 ShMem   1 Linda.
   1 Symmetry operations used in ECPInt.
 ECPInt:  NShTT=     325 NPrTT=    1544 LenC2=     326 LenP2D=    1374.
 LDataN:  DoStor=T MaxTD1= 5 Len=  102
 Number of processors reduced to  42 by ecpmxn.
 D1PCM: PCM CHGder 1st derivatives, ID1Alg=3 FixD1E=F DoIter=F DoCFld=F I1PDM=0.
 CoulSu:  requested number of processors reduced to:  30 ShMem   1 Linda.
 CoulSu:  requested number of processors reduced to:  31 ShMem   1 Linda.
 Calling FoFJK, ICntrl=      2127 FMM=F ISym2X=0 I1Cent= 0 IOpClX= 0 NMat=1 NMatS=1 NMatT=0.
 ***** Axes restored to original set *****
 -------------------------------------------------------------------
 Center     Atomic                   Forces (Hartrees/Bohr)
 Number     Number              X              Y              Z
 -------------------------------------------------------------------
      1        5           0.000126626   -0.003183376    0.000879481
      2        1           0.000464913    0.000285255   -0.000148528
      3        1           0.000841898    0.001857257   -0.002169755
      4        1          -0.000390039    0.001384453    0.000585665
      5       20          -0.001043398   -0.000343588    0.000853136
 -------------------------------------------------------------------
 Cartesian Forces:  Max     0.003183376 RMS     0.001276856

 GradGradGradGradGradGradGradGradGradGradGradGradGradGradGradGradGradGrad
 Berny optimization.
 Using GEDIIS/GDIIS optimizer.
 FormGI is forming the generalized inverse of G from B-inverse, IUseBI=4.
 Internal  Forces:  Max     0.002017445 RMS     0.000958259
 Search for a local minimum.
 Step number  10 out of a maximum of   10
 All quantities printed in internal units (Hartrees-Bohrs-Radians)
 Mixed Optimization -- En-DIIS/RFO-DIIS
 Update second derivatives using D2CorX and points    6    7    8    9   10
 DE= -8.01D-05 DEPred=-4.34D-05 R= 1.85D+00
 TightC=F SS=  1.41D+00  RLast= 4.60D-02 DXNew= 2.4000D+00 1.3800D-01
 Trust test= 1.85D+00 RLast= 4.60D-02 DXMaxT set to 1.43D+00
 The second derivative matrix:
                          R1        R2        R3        R4        A1
           R1           0.44720
           R2           0.01728   0.20164
           R3          -0.07156   0.02884   0.42789
           R4          -0.00688   0.02571   0.00773   0.03219
           A1          -0.00814   0.05371  -0.00589   0.01266   0.17475
           A2          -0.02316  -0.00964   0.00228   0.00647  -0.04477
           A3          -0.00016   0.03649  -0.01845   0.00919   0.00078
           A4          -0.00741   0.04966   0.00689   0.08887   0.00266
           D1           0.01322   0.00107   0.00927  -0.00856   0.00542
           D2           0.01127  -0.00628   0.00201  -0.00637  -0.00501
           D3          -0.00195  -0.00735  -0.00726   0.00219  -0.01043
                          A2        A3        A4        D1        D2
           A2           0.04888
           A3          -0.01298   0.15253
           A4           0.02137   0.02858   0.27980
           D1           0.00268  -0.00413  -0.02491   0.01649
           D2           0.00102  -0.01178  -0.01838   0.00862   0.00966
           D3          -0.00166  -0.00765   0.00654  -0.00557  -0.00125
                          D3
           D3           0.00662
 ITU=  1  1  1  1  1  1  1  0  1  0
 Use linear search instead of GDIIS.
     Eigenvalues ---    0.00258   0.00514   0.02843   0.11551   0.15188
     Eigenvalues ---    0.23334   0.33339   0.37516   0.51184
 RFO step:  Lambda=-1.12132784D-04 EMin= 2.57538619D-03
 Quartic linear search produced a step of  1.72670.
 Iteration  1 RMS(Cart)=  0.06278499 RMS(Int)=  0.00172142
 Iteration  2 RMS(Cart)=  0.00202019 RMS(Int)=  0.00012405
 Iteration  3 RMS(Cart)=  0.00000199 RMS(Int)=  0.00012404
 Iteration  4 RMS(Cart)=  0.00000000 RMS(Int)=  0.00012404
 Variable       Old X    -DE/DX   Delta X   Delta X   Delta X     New X
                                 (Linear)    (Quad)   (Total)
    R1        2.33991   0.00040   0.00086   0.00195   0.00281   2.34272
    R2        2.36000   0.00202  -0.00372   0.01240   0.00869   2.36869
    R3        2.34566  -0.00145  -0.00234  -0.00409  -0.00643   2.33923
    R4        4.78332   0.00133   0.07417   0.04120   0.11538   4.89869
    A1        1.88069  -0.00062  -0.01099  -0.00591  -0.01704   1.86365
    A2        1.92966   0.00044   0.00101   0.00502   0.00573   1.93539
    A3        1.89207  -0.00088  -0.00636  -0.00962  -0.01610   1.87597
    A4        1.37702  -0.00031  -0.02014  -0.02162  -0.04176   1.33525
    D1        2.08890  -0.00031  -0.00867  -0.00273  -0.01123   2.07767
    D2       -2.02744  -0.00060  -0.01161  -0.07670  -0.08823  -2.11567
    D3        2.16684  -0.00028  -0.00295  -0.07397  -0.07701   2.08984
         Item               Value     Threshold  Converged?
 Maximum Force            0.002017     0.000450     NO 
 RMS     Force            0.000958     0.000300     NO 
 Maximum Displacement     0.105900     0.001800     NO 
 RMS     Displacement     0.063375     0.001200     NO 
 Predicted change in Energy=-2.260155D-04
 Optimization stopped.
    -- Number of steps exceeded,  NStep=  10
    -- Flag reset to prevent archiving.
                           ----------------------------
                           ! Non-Optimized Parameters !
                           ! (Angstroms and Degrees)  !
 --------------------------                            --------------------------
 ! Name  Definition              Value          Derivative Info.                !
 --------------------------------------------------------------------------------
 ! R1    R(1,2)                  1.2397         -DE/DX =    0.0004              !
 ! R2    R(1,3)                  1.2535         -DE/DX =    0.002               !
 ! R3    R(1,4)                  1.2379         -DE/DX =   -0.0014              !
 ! R4    R(3,5)                  2.5923         -DE/DX =    0.0013              !
 ! A1    A(2,1,3)              106.7791         -DE/DX =   -0.0006              !
 ! A2    A(2,1,4)              110.8897         -DE/DX =    0.0004              !
 ! A3    A(3,1,4)              107.485          -DE/DX =   -0.0009              !
 ! A4    A(1,3,5)               76.5044         -DE/DX =   -0.0003              !
 ! D1    D(2,1,3,4)            119.0419         -DE/DX =   -0.0003              !
 ! D2    D(2,1,3,5)           -121.2192         -DE/DX =   -0.0006              !
 ! D3    D(4,1,3,5)            119.7388         -DE/DX =   -0.0003              !
 --------------------------------------------------------------------------------
 GradGradGradGradGradGradGradGradGradGradGradGradGradGradGradGradGradGrad

                          Input orientation:                          
 ---------------------------------------------------------------------
 Center     Atomic      Atomic             Coordinates (Angstroms)
 Number     Number       Type             X           Y           Z
 ---------------------------------------------------------------------
      1          5           0        7.722789    8.424833    0.694418
      2          1           0        8.813869    8.634517    1.241025
      3          1           0        7.382508    9.473904    0.108496
      4          1           0        7.824578    7.520045   -0.149236
      5         20           0        5.543515    9.261281    1.834758
 ---------------------------------------------------------------------
                    Distance matrix (angstroms):
                    1          2          3          4          5
     1  B    0.000000
     2  H    1.238225   0.000000
     3  H    1.248858   2.008976   0.000000
     4  H    1.241271   2.038030   2.019756   0.000000
     5  Ca   2.597933   3.382390   2.531222   3.488751   0.000000
 Stoichiometry    BCaH3
 Framework group  C1[X(BCaH3)]
 Deg. of freedom     9
 Full point group                 C1      NOp   1
 Largest Abelian subgroup         C1      NOp   1
 Largest concise Abelian subgroup C1      NOp   1
                         Standard orientation:                         
 ---------------------------------------------------------------------
 Center     Atomic      Atomic             Coordinates (Angstroms)
 Number     Number       Type             X           Y           Z
 ---------------------------------------------------------------------
      1          5           0       -1.819514   -0.001041   -0.062320
      2          1           0       -2.425120    1.070404   -0.198143
      3          1           0       -1.475406   -0.094949    1.134516
      4          1           0       -2.561507   -0.958573   -0.333119
      5         20           0        0.777980   -0.000584   -0.014583
 ---------------------------------------------------------------------
 Rotational constants (GHZ):         141.2403898           6.6081595           6.5565809

 **********************************************************************

            Population analysis using the SCF density.

 **********************************************************************

 Orbital symmetries:
       Occupied  (A) (A) (A) (A) (A) (A) (A) (A) (A) (A) (A) (A)
                 (A) (A)
       Virtual   (A) (A) (A) (A) (A) (A) (A) (A) (A) (A) (A) (A)
                 (A) (A) (A) (A) (A) (A) (A) (A) (A) (A) (A) (A)
                 (A) (A) (A) (A) (A) (A) (A) (A) (A) (A) (A) (A)
                 (A) (A) (A)
 The electronic state is 1-A.
 Alpha  occ. eigenvalues -- -146.68354 -15.80536 -12.91713 -12.91708 -12.91685
 Alpha  occ. eigenvalues --   -6.94018  -1.89425  -1.12664  -1.12651  -1.12039
 Alpha  occ. eigenvalues --   -0.49318  -0.31229  -0.30529  -0.14420
 Alpha virt. eigenvalues --    0.00650   0.09494   0.09617   0.10076   0.10599
 Alpha virt. eigenvalues --    0.10950   0.11912   0.12175   0.12686   0.20312
 Alpha virt. eigenvalues --    0.25580   0.25755   0.27138   0.28140   0.28629
 Alpha virt. eigenvalues --    0.28855   0.29059   0.30366   0.38640   0.41085
 Alpha virt. eigenvalues --    0.43307   0.54947   0.74902   0.76992   0.86236
 Alpha virt. eigenvalues --    1.07482   1.19814   1.29876   1.55793   1.57293
 Alpha virt. eigenvalues --    1.59373   1.75958   1.78160   1.98347   2.14917
 Alpha virt. eigenvalues --    2.15631   2.44551   2.53265   2.55116
          Condensed to atoms (all electrons):
               1          2          3          4          5
     1  B    4.264408   0.412934   0.336297   0.415740   0.352187
     2  H    0.412934   0.826178  -0.043311  -0.043090  -0.014060
     3  H    0.336297  -0.043311   0.832278  -0.040187   0.041619
     4  H    0.415740  -0.043090  -0.040187   0.825265  -0.017518
     5  Ca   0.352187  -0.014060   0.041619  -0.017518  18.450649
 Mulliken charges:
               1
     1  B   -0.781566
     2  H   -0.138651
     3  H   -0.126697
     4  H   -0.140210
     5  Ca   1.187123
 Sum of Mulliken charges =  -0.00000
 Mulliken charges with hydrogens summed into heavy atoms:
               1
     1  B   -1.187123
     5  Ca   1.187123
 Electronic spatial extent (au):  <R**2>=            236.6929
 Charge=             -0.0000 electrons
 Dipole moment (field-independent basis, Debye):
    X=             18.2532    Y=              0.0621    Z=              2.5167  Tot=             18.4260
 Quadrupole moment (field-independent basis, Debye-Ang):
   XX=            -39.6055   YY=            -26.0232   ZZ=            -27.8825
   XY=             -0.0363   XZ=             -1.5128   YZ=             -0.0467
 Traceless Quadrupole moment (field-independent basis, Debye-Ang):
   XX=             -8.4351   YY=              5.1472   ZZ=              3.2879
   XY=             -0.0363   XZ=             -1.5128   YZ=             -0.0467
 Octapole moment (field-independent basis, Debye-Ang**2):
  XXX=            103.4444  YYY=             -0.0837  ZZZ=              7.8717  XYY=             22.8022
  XXY=              0.1450  XXZ=              1.4638  XZZ=             22.8608  YZZ=              0.2599
  YYZ=              3.4382  XYZ=              0.1874
 Hexadecapole moment (field-independent basis, Debye-Ang**3):
 XXXX=           -457.5201 YYYY=            -60.9504 ZZZZ=            -66.7921 XXXY=             -0.7323
 XXXZ=             -3.4122 YYYX=              0.3897 YYYZ=             -0.1352 ZZZX=             -4.5185
 ZZZY=             -0.0795 XXYY=            -78.1528 XXZZ=            -75.1745 YYZZ=            -21.1074
 XXYZ=             -0.6267 YYXZ=             -3.0143 ZZXY=             -0.3658
 N-N= 3.788513353859D+01 E-N=-1.738861502044D+03  KE= 7.024063251587D+02


 WE THE UNWILLING
 LED BY THE UNQUALIFIED
 HAVE BEEN DOING THE UNBELIEVABLE SO LONG WITH SO LITTLE
 THAT WE NOW ATTEMPT THE IMPOSSIBLE WITH NOTHING.

                                    -- ANONYMOUS
 Error termination request processed by link 9999.
 Error termination via Lnk1e in /home/pub/g16/l9999.exe at Wed May  3 15:23:48 2023.
 Job cpu time:       0 days  0 hours 23 minutes 59.4 seconds.
 Elapsed time:       0 days  0 hours  0 minutes 30.8 seconds.
 File lengths (MBytes):  RWF=     17 Int=      0 D2E=      0 Chk=      2 Scr=      1
