 Entering Gaussian System, Link 0=g16
 Initial command:
 /home/pub/g16/l1.exe "/home/zz1/gauss/SCRDIR/Gau-1346548.inp" -scrdir="/home/zz1/gauss/SCRDIR/"
 Entering Link 1 = /home/pub/g16/l1.exe PID=   1346550.
  
 Copyright (c) 1988,1990,1992,1993,1995,1998,2003,2009,2016,
            Gaussian, Inc.  All Rights Reserved.
  
 This is part of the Gaussian(R) 16 program.  It is based on
 the Gaussian(R) 09 system (copyright 2009, Gaussian, Inc.),
 the Gaussian(R) 03 system (copyright 2003, Gaussian, Inc.),
 the Gaussian(R) 98 system (copyright 1998, Gaussian, Inc.),
 the Gaussian(R) 94 system (copyright 1995, Gaussian, Inc.),
 the Gaussian 92(TM) system (copyright 1992, Gaussian, Inc.),
 the Gaussian 90(TM) system (copyright 1990, Gaussian, Inc.),
 the Gaussian 88(TM) system (copyright 1988, Gaussian, Inc.),
 the Gaussian 86(TM) system (copyright 1986, Carnegie Mellon
 University), and the Gaussian 82(TM) system (copyright 1983,
 Carnegie Mellon University). Gaussian is a federally registered
 trademark of Gaussian, Inc.
  
 This software contains proprietary and confidential information,
 including trade secrets, belonging to Gaussian, Inc.
  
 This software is provided under written license and may be
 used, copied, transmitted, or stored only in accord with that
 written license.
  
 The following legend is applicable only to US Government
 contracts under FAR:
  
                    RESTRICTED RIGHTS LEGEND
  
 Use, reproduction and disclosure by the US Government is
 subject to restrictions as set forth in subparagraphs (a)
 and (c) of the Commercial Computer Software - Restricted
 Rights clause in FAR 52.227-19.
  
 Gaussian, Inc.
 340 Quinnipiac St., Bldg. 40, Wallingford CT 06492
  
  
 ---------------------------------------------------------------
 Warning -- This program may not be used in any manner that
 competes with the business of Gaussian, Inc. or will provide
 assistance to any competitor of Gaussian, Inc.  The licensee
 of this program is prohibited from giving any competitor of
 Gaussian, Inc. access to this program.  By using this program,
 the user acknowledges that Gaussian, Inc. is engaged in the
 business of creating and licensing software in the field of
 computational chemistry and represents and warrants to the
 licensee that it is not a competitor of Gaussian, Inc. and that
 it will not use this program in any manner prohibited above.
 ---------------------------------------------------------------
  

 Cite this work as:
 Gaussian 16, Revision A.03,
 M. J. Frisch, G. W. Trucks, H. B. Schlegel, G. E. Scuseria, 
 M. A. Robb, J. R. Cheeseman, G. Scalmani, V. Barone, 
 G. A. Petersson, H. Nakatsuji, X. Li, M. Caricato, A. V. Marenich, 
 J. Bloino, B. G. Janesko, R. Gomperts, B. Mennucci, H. P. Hratchian, 
 J. V. Ortiz, A. F. Izmaylov, J. L. Sonnenberg, D. Williams-Young, 
 F. Ding, F. Lipparini, F. Egidi, J. Goings, B. Peng, A. Petrone, 
 T. Henderson, D. Ranasinghe, V. G. Zakrzewski, J. Gao, N. Rega, 
 G. Zheng, W. Liang, M. Hada, M. Ehara, K. Toyota, R. Fukuda, 
 J. Hasegawa, M. Ishida, T. Nakajima, Y. Honda, O. Kitao, H. Nakai, 
 T. Vreven, K. Throssell, J. A. Montgomery, Jr., J. E. Peralta, 
 F. Ogliaro, M. J. Bearpark, J. J. Heyd, E. N. Brothers, K. N. Kudin, 
 V. N. Staroverov, T. A. Keith, R. Kobayashi, J. Normand, 
 K. Raghavachari, A. P. Rendell, J. C. Burant, S. S. Iyengar, 
 J. Tomasi, M. Cossi, J. M. Millam, M. Klene, C. Adamo, R. Cammi, 
 J. W. Ochterski, R. L. Martin, K. Morokuma, O. Farkas, 
 J. B. Foresman, and D. J. Fox, Gaussian, Inc., Wallingford CT, 2016.
 
 ******************************************
 Gaussian 16:  ES64L-G16RevA.03 25-Dec-2016
                 9-Apr-2023 
 ******************************************
 %chk=/home/zz1/proj/gauss/new/chk/K-POGWOA-6/148.chk
 %CPU=0-48
 SetSPE:  set environment variable "MP_BIND" = "yes"
 SetSPE:  set environment variable "MP_BLIST" = "0,1,2,3,4,5,6,7,8,9,10,11,12,13,14,15,16,17,18,19,20,21,22,23,24,25,26,27,28,29,30,31,32,33,34,35,36,37,38,39,40,41,42,43,44,45,46,47,48"
 Will use up to   49 processors via shared memory.
 ----------------------------------------------------
 # M062X/Def2SVP opt(MaxCyc=10)/freq SCRF pop(Always)
 ----------------------------------------------------
 1/6=10,18=20,19=15,26=3,38=1/1,3;
 2/9=110,12=2,17=6,18=5,40=1/2;
 3/5=43,7=101,11=2,25=1,30=1,70=2201,71=1,74=-55/1,2,3;
 4//1;
 5/5=2,38=5/2;
 6/7=2,8=2,9=2,10=2,28=1/1;
 7//1,2,3,16;
 1/6=10,18=20,19=15,26=3/3(2);
 2/9=110/2;
 99//99;
 2/9=110/2;
 3/5=43,7=101,11=2,25=1,30=1,70=2205,71=1,74=-55/1,2,3;
 4/5=5,16=3,69=1/1;
 5/5=2,38=5/2;
 6/7=2,8=2,9=2,10=2,28=1/1;
 7//1,2,3,16;
 1/6=10,18=20,19=15,26=3/3(-6);
 2/9=110/2;
 6/7=2,8=2,9=2,10=2,19=2,28=1/1;
 99/9=1/99;
 ----------
 K-POGWOA-6
 ----------
 Symbolic Z-matrix:
 Charge =  0 Multiplicity = 1
 K                     9.42068  -5.49034  -1.9831 
 N                     7.51384  -5.02922   0.70761 
 C                     6.46436  -6.07416   0.49945 
 C                     5.40048  -5.49344  -0.21328 
 N                     5.6718   -4.31047  -0.39907 
 C                     6.76816  -3.91809   0.01818 
 H                     6.29949  -7.28961   0.74686 
 H                     4.48736  -6.02119  -0.59484 
 H                     7.58188  -3.02447  -0.18161 
 
 Add virtual bond connecting atoms N2         and K1         Dist= 6.29D+00.

 GradGradGradGradGradGradGradGradGradGradGradGradGradGradGradGradGradGrad
 Berny optimization.
 Initialization pass.
                           ----------------------------
                           !    Initial Parameters    !
                           ! (Angstroms and Degrees)  !
 --------------------------                            --------------------------
 ! Name  Definition              Value          Derivative Info.                !
 --------------------------------------------------------------------------------
 ! R1    R(1,2)                  3.33           estimate D2E/DX2                !
 ! R2    R(2,3)                  1.4955         estimate D2E/DX2                !
 ! R3    R(2,6)                  1.5053         estimate D2E/DX2                !
 ! R4    R(3,4)                  1.4061         estimate D2E/DX2                !
 ! R5    R(3,7)                  1.2513         estimate D2E/DX2                !
 ! R6    R(4,5)                  1.2278         estimate D2E/DX2                !
 ! R7    R(4,8)                  1.1216         estimate D2E/DX2                !
 ! R8    R(5,6)                  1.237          estimate D2E/DX2                !
 ! R9    R(6,9)                  1.225          estimate D2E/DX2                !
 ! A1    A(1,2,3)              101.1056         estimate D2E/DX2                !
 ! A2    A(1,2,6)               90.9053         estimate D2E/DX2                !
 ! A3    A(3,2,6)               95.9912         estimate D2E/DX2                !
 ! A4    A(2,3,4)              108.2365         estimate D2E/DX2                !
 ! A5    A(2,3,7)              138.0421         estimate D2E/DX2                !
 ! A6    A(4,3,7)              113.6851         estimate D2E/DX2                !
 ! A7    A(3,4,5)              107.904          estimate D2E/DX2                !
 ! A8    A(3,4,8)              126.4497         estimate D2E/DX2                !
 ! A9    A(5,4,8)              125.5766         estimate D2E/DX2                !
 ! A10   A(4,5,6)              116.7721         estimate D2E/DX2                !
 ! A11   A(2,6,5)              111.0636         estimate D2E/DX2                !
 ! A12   A(2,6,9)              106.5055         estimate D2E/DX2                !
 ! A13   A(5,6,9)              139.9203         estimate D2E/DX2                !
 ! D1    D(1,2,3,4)            -91.2665         estimate D2E/DX2                !
 ! D2    D(1,2,3,7)             86.2832         estimate D2E/DX2                !
 ! D3    D(6,2,3,4)              0.842          estimate D2E/DX2                !
 ! D4    D(6,2,3,7)            178.3916         estimate D2E/DX2                !
 ! D5    D(1,2,6,5)            101.4593         estimate D2E/DX2                !
 ! D6    D(1,2,6,9)            -64.3067         estimate D2E/DX2                !
 ! D7    D(3,2,6,5)              0.1937         estimate D2E/DX2                !
 ! D8    D(3,2,6,9)           -165.5723         estimate D2E/DX2                !
 ! D9    D(2,3,4,5)             -1.6758         estimate D2E/DX2                !
 ! D10   D(2,3,4,8)            175.4108         estimate D2E/DX2                !
 ! D11   D(7,3,4,5)           -179.8871         estimate D2E/DX2                !
 ! D12   D(7,3,4,8)             -2.8005         estimate D2E/DX2                !
 ! D13   D(3,4,5,6)              1.9518         estimate D2E/DX2                !
 ! D14   D(8,4,5,6)           -175.1669         estimate D2E/DX2                !
 ! D15   D(4,5,6,2)             -1.3906         estimate D2E/DX2                !
 ! D16   D(4,5,6,9)            157.1307         estimate D2E/DX2                !
 --------------------------------------------------------------------------------
 Trust Radius=3.00D-01 FncErr=1.00D-07 GrdErr=1.00D-06 EigMax=2.50D+02 EigMin=1.00D-04
 Number of steps in this run=     10 maximum allowed number of steps=    100.
 GradGradGradGradGradGradGradGradGradGradGradGradGradGradGradGradGradGrad

                          Input orientation:                          
 ---------------------------------------------------------------------
 Center     Atomic      Atomic             Coordinates (Angstroms)
 Number     Number       Type             X           Y           Z
 ---------------------------------------------------------------------
      1         19           0        9.420680   -5.490340   -1.983100
      2          7           0        7.513840   -5.029220    0.707610
      3          6           0        6.464360   -6.074160    0.499450
      4          6           0        5.400480   -5.493440   -0.213280
      5          7           0        5.671800   -4.310470   -0.399070
      6          6           0        6.768160   -3.918090    0.018180
      7          1           0        6.299490   -7.289610    0.746860
      8          1           0        4.487360   -6.021190   -0.594840
      9          1           0        7.581880   -3.024470   -0.181610
 ---------------------------------------------------------------------
                    Distance matrix (angstroms):
                    1          2          3          4          5
     1  K    0.000000
     2  N    3.329954   0.000000
     3  C    3.904322   1.495540   0.000000
     4  C    4.392526   2.351559   1.406080   0.000000
     5  N    4.237375   2.265933   2.132157   1.227823   0.000000
     6  C    3.675997   1.505311   2.229922   2.099012   1.236958
     7  H    4.520164   2.566233   1.251284   2.226278   3.253064
     8  H    5.152350   3.440925   2.260267   1.121560   2.089925
     9  H    3.564697   2.194166   3.318630   3.294742   2.312897
                    6          7          8          9
     6  C    0.000000
     7  H    3.481059   0.000000
     8  H    3.162415   2.587057   0.000000
     9  H    1.224995   4.549505   4.327487   0.000000
 Stoichiometry    C3H3KN2
 Framework group  C1[X(C3H3KN2)]
 Deg. of freedom    21
 Full point group                 C1      NOp   1
 Largest Abelian subgroup         C1      NOp   1
 Largest concise Abelian subgroup C1      NOp   1
                         Standard orientation:                         
 ---------------------------------------------------------------------
 Center     Atomic      Atomic             Coordinates (Angstroms)
 Number     Number       Type             X           Y           Z
 ---------------------------------------------------------------------
      1         19           0       -2.420133    0.073288   -0.184484
      2          7           0        0.610008    0.004593    1.194688
      3          6           0        1.306161    1.073454    0.413953
      4          6           0        1.923757    0.474516   -0.698211
      5          7           0        1.714530   -0.733986   -0.640792
      6          6           0        1.017798   -1.134777    0.299419
      7          1           0        1.451290    2.315395    0.461209
      8          1           0        2.467160    1.004142   -1.524109
      9          1           0        0.306014   -2.085414    0.599859
 ---------------------------------------------------------------------
 Rotational constants (GHZ):           5.6556225           1.2677353           1.2306189
 Standard basis: def2SVP (5D, 7F)
 There are   116 symmetry adapted cartesian basis functions of A   symmetry.
 There are   109 symmetry adapted basis functions of A   symmetry.
   109 basis functions,   199 primitive gaussians,   116 cartesian basis functions
    27 alpha electrons       27 beta electrons
       nuclear repulsion energy       242.3101362792 Hartrees.
 NAtoms=    9 NActive=    9 NUniq=    9 SFac= 1.00D+00 NAtFMM=   60 NAOKFM=F Big=F
 Integral buffers will be    131072 words long.
 Raffenetti 2 integral format.
 Two-electron integral symmetry is turned on.
 ------------------------------------------------------------------------------
 Polarizable Continuum Model (PCM)
 =================================
 Model                : PCM.
 Atomic radii         : UFF (Universal Force Field).
 Polarization charges : Total charges.
 Charge compensation  : None.
 Solution method      : On-the-fly selection.
 Cavity type          : Scaled VdW (van der Waals Surface) (Alpha=1.100).
 Cavity algorithm     : GePol (No added spheres)
                        Default sphere list used, NSphG=    9.
                        Lebedev-Laikov grids with approx.  5.0 points / Ang**2.
                        Smoothing algorithm: York/Karplus (Gamma=1.0000).
                        Polarization charges: spherical gaussians, with
                                              point-specific exponents (IZeta= 3).
                        Self-potential: point-specific (ISelfS= 7).
                        Self-field    : sphere-specific E.n sum rule (ISelfD= 2).
 1st derivatives      : Analytical E(r).r(x)/FMM algorithm (CHGder, D1EAlg=3).
                        Cavity 1st derivative terms included.
 Solvent              : Water, Eps=  78.355300 Eps(inf)=   1.777849
 ------------------------------------------------------------------------------
 Spheres list:
 ISph  on   Nord     Re0    Alpha      Xe            Ye            Ze
    1   K      1    1.9060  1.100     -2.420133      0.073288     -0.184484
    2   N      2    1.8300  1.100      0.610008      0.004593      1.194688
    3   C      3    1.9255  1.100      1.306161      1.073454      0.413953
    4   C      4    1.9255  1.100      1.923757      0.474516     -0.698211
    5   N      5    1.8300  1.100      1.714530     -0.733986     -0.640792
    6   C      6    1.9255  1.100      1.017798     -1.134777      0.299419
    7   H      7    1.4430  1.100      1.451290      2.315395      0.461209
    8   H      8    1.4430  1.100      2.467160      1.004142     -1.524109
    9   H      9    1.4430  1.100      0.306014     -2.085414      0.599859
 ------------------------------------------------------------------------------
 One-electron integrals computed using PRISM.
 PrsmSu:  requested number of processors reduced to:  30 ShMem   1 Linda.
   1 Symmetry operations used in ECPInt.
 ECPInt:  NShTT=    1225 NPrTT=    5158 LenC2=    1207 LenP2D=    4097.
 LDataN:  DoStor=T MaxTD1= 4 Len=   56
 Number of processors reduced to  46 by ecpmxn.
 NBasis=   109 RedAO= T EigKep=  2.03D-03  NBF=   109
 NBsUse=   109 1.00D-06 EigRej= -1.00D+00 NBFU=   109
 ExpMin= 1.21D-02 ExpMax= 3.15D+04 ExpMxC= 4.73D+03 IAcc=3 IRadAn=         5 AccDes= 0.00D+00
 Harris functional with IExCor= 1009 and IRadAn=       5 diagonalized for initial guess.
 HarFok:  IExCor= 1009 AccDes= 0.00D+00 IRadAn=         5 IDoV= 1 UseB2=F ITyADJ=14
 ICtDFT=  3500011 ScaDFX=  1.000000  1.000000  1.000000  1.000000
 FoFCou: FMM=F IPFlag=           0 FMFlag=      100000 FMFlg1=           0
         NFxFlg=           0 DoJE=T BraDBF=F KetDBF=T FulRan=T
         wScrn=  0.000000 ICntrl=       500 IOpCl=  0 I1Cent=   200000004 NGrid=           0
         NMat0=    1 NMatS0=      1 NMatT0=    0 NMatD0=    1 NMtDS0=    0 NMtDT0=    0
 Petite list used in FoFCou.
 Keep R1 ints in memory in canonical form, NReq=64164802.
 Requested convergence on RMS density matrix=1.00D-08 within 128 cycles.
 Requested convergence on MAX density matrix=1.00D-06.
 Requested convergence on             energy=1.00D-06.
 No special actions if energy rises.
 CoulSu:  requested number of processors reduced to:  40 ShMem   1 Linda.
 Inv3:  Mode=1 IEnd=     3434700.
 Iteration    1 A*A^-1 deviation from unit magnitude is 2.89D-15 for    438.
 Iteration    1 A*A^-1 deviation from orthogonality  is 1.22D-15 for    852     12.
 Iteration    1 A^-1*A deviation from unit magnitude is 2.66D-15 for    242.
 Iteration    1 A^-1*A deviation from orthogonality  is 1.67D-15 for    984    868.
 CoulSu:  requested number of processors reduced to:  40 ShMem   1 Linda.
 CoulSu:  requested number of processors reduced to:  40 ShMem   1 Linda.
 CoulSu:  requested number of processors reduced to:  41 ShMem   1 Linda.
 CoulSu:  requested number of processors reduced to:  38 ShMem   1 Linda.
 Error on total polarization charges =  0.01050
 SCF Done:  E(RM062X) =  -825.174823239     A.U. after   13 cycles
            NFock= 13  Conv=0.53D-08     -V/T= 2.0041

 **********************************************************************

            Population analysis using the SCF density.

 **********************************************************************

 Orbital symmetries:
       Occupied  (A) (A) (A) (A) (A) (A) (A) (A) (A) (A) (A) (A)
                 (A) (A) (A) (A) (A) (A) (A) (A) (A) (A) (A) (A)
                 (A) (A) (A)
       Virtual   (A) (A) (A) (A) (A) (A) (A) (A) (A) (A) (A) (A)
                 (A) (A) (A) (A) (A) (A) (A) (A) (A) (A) (A) (A)
                 (A) (A) (A) (A) (A) (A) (A) (A) (A) (A) (A) (A)
                 (A) (A) (A) (A) (A) (A) (A) (A) (A) (A) (A) (A)
                 (A) (A) (A) (A) (A) (A) (A) (A) (A) (A) (A) (A)
                 (A) (A) (A) (A) (A) (A) (A) (A) (A) (A) (A) (A)
                 (A) (A) (A) (A) (A) (A) (A) (A) (A) (A)
 The electronic state is 1-A.
 Alpha  occ. eigenvalues -- -131.05264 -14.71693 -14.69135 -13.59677 -10.91362
 Alpha  occ. eigenvalues --  -10.91362 -10.91348 -10.56113 -10.54420 -10.52081
 Alpha  occ. eigenvalues --   -1.48578  -1.06327  -0.85499  -0.81104  -0.81101
 Alpha  occ. eigenvalues --   -0.80969  -0.76987  -0.61932  -0.57095  -0.51039
 Alpha  occ. eigenvalues --   -0.46355  -0.45164  -0.38388  -0.31810  -0.27709
 Alpha  occ. eigenvalues --   -0.27292  -0.23492
 Alpha virt. eigenvalues --   -0.00986   0.04655   0.05594   0.05676   0.08267
 Alpha virt. eigenvalues --    0.09813   0.13157   0.14760   0.17054   0.17522
 Alpha virt. eigenvalues --    0.19566   0.19962   0.20380   0.22010   0.23056
 Alpha virt. eigenvalues --    0.28899   0.30353   0.35136   0.36692   0.43597
 Alpha virt. eigenvalues --    0.48625   0.52976   0.57542   0.59541   0.59915
 Alpha virt. eigenvalues --    0.62034   0.62177   0.62870   0.64268   0.66375
 Alpha virt. eigenvalues --    0.66754   0.70447   0.71992   0.73319   0.77137
 Alpha virt. eigenvalues --    0.77658   0.80416   0.88571   0.90014   0.91872
 Alpha virt. eigenvalues --    0.95495   0.98324   1.02119   1.08949   1.15893
 Alpha virt. eigenvalues --    1.18364   1.23924   1.32903   1.35198   1.46547
 Alpha virt. eigenvalues --    1.48344   1.57331   1.59135   1.67321   1.70658
 Alpha virt. eigenvalues --    1.76627   1.77016   1.84530   1.90440   1.95075
 Alpha virt. eigenvalues --    1.95678   2.00422   2.01259   2.08871   2.20227
 Alpha virt. eigenvalues --    2.27765   2.36663   2.38018   2.51817   2.52240
 Alpha virt. eigenvalues --    2.54486   2.60797   2.67221   2.79166   2.82787
 Alpha virt. eigenvalues --    2.94743   2.99122   3.03737   3.09580   3.15425
 Alpha virt. eigenvalues --    3.49509   3.56924
          Condensed to atoms (all electrons):
               1          2          3          4          5          6
     1  K   18.034151   0.073354   0.002206   0.005002   0.006383   0.000454
     2  N    0.073354   6.882988   0.385440  -0.059696  -0.131997   0.402282
     3  C    0.002206   0.385440   5.172037   0.522045  -0.126263  -0.136342
     4  C    0.005002  -0.059696   0.522045   4.926148   0.578936  -0.159690
     5  N    0.006383  -0.131997  -0.126263   0.578936   6.267060   0.570973
     6  C    0.000454   0.402282  -0.136342  -0.159690   0.570973   5.027221
     7  H   -0.000750  -0.025047   0.359065  -0.050819   0.007818   0.007717
     8  H   -0.001515   0.003045  -0.065533   0.405435  -0.040910   0.008562
     9  H   -0.000524  -0.063946   0.009826   0.002363  -0.028918   0.383176
               7          8          9
     1  K   -0.000750  -0.001515  -0.000524
     2  N   -0.025047   0.003045  -0.063946
     3  C    0.359065  -0.065533   0.009826
     4  C   -0.050819   0.405435   0.002363
     5  N    0.007818  -0.040910  -0.028918
     6  C    0.007717   0.008562   0.383176
     7  H    0.670326   0.000350  -0.000107
     8  H    0.000350   0.693557  -0.000038
     9  H   -0.000107  -0.000038   0.641841
 Mulliken charges:
               1
     1  K    0.881239
     2  N   -0.466423
     3  C   -0.122480
     4  C   -0.169724
     5  N   -0.103082
     6  C   -0.104353
     7  H    0.031448
     8  H   -0.002953
     9  H    0.056327
 Sum of Mulliken charges =  -0.00000
 Mulliken charges with hydrogens summed into heavy atoms:
               1
     1  K    0.881239
     2  N   -0.466423
     3  C   -0.091032
     4  C   -0.172677
     5  N   -0.103082
     6  C   -0.048026
 Electronic spatial extent (au):  <R**2>=            914.3412
 Charge=             -0.0000 electrons
 Dipole moment (field-independent basis, Debye):
    X=            -16.1167    Y=              1.2183    Z=             -3.3046  Tot=             16.4970
 Quadrupole moment (field-independent basis, Debye-Ang):
   XX=            -21.4480   YY=            -41.6269   ZZ=            -48.1236
   XY=              2.8269   XZ=              2.2613   YZ=             -2.5888
 Traceless Quadrupole moment (field-independent basis, Debye-Ang):
   XX=             15.6181   YY=             -4.5607   ZZ=            -11.0574
   XY=              2.8269   XZ=              2.2613   YZ=             -2.5888
 Octapole moment (field-independent basis, Debye-Ang**2):
  XXX=           -141.4806  YYY=              2.8794  ZZZ=            -16.2258  XYY=            -22.4939
  XXY=              8.7674  XXZ=             -7.0443  XZZ=            -24.3584  YZZ=              1.5850
  YYZ=             -0.1794  XYZ=             -3.8874
 Hexadecapole moment (field-independent basis, Debye-Ang**3):
 XXXX=           -605.2149 YYYY=           -198.6708 ZZZZ=           -171.0152 XXXY=             -0.0127
 XXXZ=             20.7333 YYYX=              6.3083 YYYZ=             -4.2525 ZZZX=              3.3828
 ZZZY=             -4.3607 XXYY=           -163.5889 XXZZ=           -151.7728 YYZZ=            -63.1822
 XXYZ=             -9.8984 YYXZ=              3.7478 ZZXY=              2.8345
 N-N= 2.423101362792D+02 E-N=-2.433253756566D+03  KE= 8.218052148665D+02
 PrsmSu:  requested number of processors reduced to:  30 ShMem   1 Linda.
   1 Symmetry operations used in ECPInt.
 ECPInt:  NShTT=    1225 NPrTT=    5158 LenC2=    1207 LenP2D=    4097.
 LDataN:  DoStor=T MaxTD1= 5 Len=  102
 Number of processors reduced to  46 by ecpmxn.
 D1PCM: PCM CHGder 1st derivatives, ID1Alg=3 FixD1E=F DoIter=F DoCFld=F I1PDM=0.
 CoulSu:  requested number of processors reduced to:  48 ShMem   1 Linda.
 CoulSu:  requested number of processors reduced to:  48 ShMem   1 Linda.
 CoulSu:  requested number of processors reduced to:  29 ShMem   1 Linda.
 CoulSu:  requested number of processors reduced to:  30 ShMem   1 Linda.
 Calling FoFJK, ICntrl=      2127 FMM=F ISym2X=0 I1Cent= 0 IOpClX= 0 NMat=1 NMatS=1 NMatT=0.
 ***** Axes restored to original set *****
 -------------------------------------------------------------------
 Center     Atomic                   Forces (Hartrees/Bohr)
 Number     Number              X              Y              Z
 -------------------------------------------------------------------
      1       19          -0.004352792    0.000876952    0.005545137
      2        7          -0.090380328   -0.023398645   -0.042548086
      3        6           0.024239901   -0.020434705    0.011969245
      4        6          -0.017116611   -0.155382923    0.039059441
      5        7          -0.078173474    0.172225839   -0.098167611
      6        6           0.183682000   -0.019675475    0.072084429
      7        1           0.029283431    0.066836623   -0.002234294
      8        1           0.011567261    0.009434400    0.008237094
      9        1          -0.058749387   -0.030482067    0.006054644
 -------------------------------------------------------------------
 Cartesian Forces:  Max     0.183682000 RMS     0.070041648

 GradGradGradGradGradGradGradGradGradGradGradGradGradGradGradGradGradGrad
 Berny optimization.
 FormGI is forming the generalized inverse of G from B-inverse, IUseBI=4.
 Internal  Forces:  Max     0.152035443 RMS     0.039787451
 Search for a local minimum.
 Step number   1 out of a maximum of   10
 All quantities printed in internal units (Hartrees-Bohrs-Radians)
 Mixed Optimization -- RFO/linear search
 Second derivative matrix not updated -- first step.
 ITU=  0
     Eigenvalues ---    0.00843   0.00938   0.01548   0.02474   0.02636
     Eigenvalues ---    0.03148   0.10152   0.10790   0.15259   0.15977
     Eigenvalues ---    0.15987   0.21271   0.22585   0.22927   0.23267
     Eigenvalues ---    0.30806   0.31406   0.32069   0.42508   0.82133
     Eigenvalues ---    0.87890
 RFO step:  Lambda=-1.10069665D-01 EMin= 8.43352809D-03
 Linear search not attempted -- first point.
 Maximum step size (   0.300) exceeded in Quadratic search.
    -- Step size scaled by   0.605
 Iteration  1 RMS(Cart)=  0.05308090 RMS(Int)=  0.00200684
 Iteration  2 RMS(Cart)=  0.00220311 RMS(Int)=  0.00061056
 Iteration  3 RMS(Cart)=  0.00000435 RMS(Int)=  0.00061055
 Iteration  4 RMS(Cart)=  0.00000000 RMS(Int)=  0.00061055
 Variable       Old X    -DE/DX   Delta X   Delta X   Delta X     New X
                                 (Linear)    (Quad)   (Total)
    R1        6.29270  -0.00709   0.00000  -0.03416  -0.03416   6.25854
    R2        2.82616  -0.07336   0.00000  -0.11657  -0.11705   2.70912
    R3        2.84463  -0.05308   0.00000  -0.08073  -0.08045   2.76418
    R4        2.65711   0.00157   0.00000   0.00094   0.00045   2.65755
    R5        2.36458  -0.06922   0.00000  -0.12976  -0.12976   2.23482
    R6        2.32025   0.15204   0.00000   0.09561   0.09577   2.41602
    R7        2.11944  -0.01666   0.00000  -0.02377  -0.02377   2.09567
    R8        2.33751   0.08377   0.00000   0.05629   0.05688   2.39439
    R9        2.31491  -0.06225   0.00000  -0.11099  -0.11099   2.20391
    A1        1.76463  -0.00159   0.00000  -0.00030   0.00029   1.76491
    A2        1.58660  -0.00571   0.00000  -0.00300  -0.00319   1.58341
    A3        1.67536   0.05268   0.00000   0.04589   0.04547   1.72084
    A4        1.88908   0.01402   0.00000   0.00393   0.00303   1.89211
    A5        2.40929  -0.03433   0.00000  -0.06307  -0.06264   2.34665
    A6        1.98418   0.02035   0.00000   0.05941   0.05986   2.04404
    A7        1.88328   0.00112   0.00000   0.01760   0.01728   1.90056
    A8        2.20696   0.00050   0.00000  -0.00636  -0.00622   2.20075
    A9        2.19172  -0.00153   0.00000  -0.01098  -0.01083   2.18089
   A10        2.03806  -0.08153   0.00000  -0.09944  -0.09855   1.93951
   A11        1.93843   0.01373   0.00000   0.03222   0.03297   1.97140
   A12        1.85887   0.01641   0.00000   0.03967   0.03960   1.89847
   A13        2.44207  -0.02822   0.00000  -0.06358  -0.06457   2.37750
    D1       -1.59290  -0.00340   0.00000  -0.00742  -0.00759  -1.60049
    D2        1.50593  -0.00105   0.00000   0.00362   0.00351   1.50943
    D3        0.01469   0.00112   0.00000  -0.00134  -0.00166   0.01303
    D4        3.11352   0.00347   0.00000   0.00971   0.00944   3.12296
    D5        1.77080  -0.00069   0.00000  -0.00039   0.00006   1.77086
    D6       -1.12236  -0.00037   0.00000  -0.01056  -0.01164  -1.13400
    D7        0.00338  -0.00041   0.00000  -0.00146  -0.00162   0.00176
    D8       -2.88978  -0.00008   0.00000  -0.01162  -0.01333  -2.90311
    D9       -0.02925  -0.00048   0.00000   0.00417   0.00483  -0.02442
   D10        3.06150   0.00132   0.00000   0.00930   0.00973   3.07122
   D11       -3.13962  -0.00073   0.00000  -0.00088  -0.00100  -3.14062
   D12       -0.04888   0.00107   0.00000   0.00425   0.00390  -0.04498
   D13        0.03407  -0.00180   0.00000  -0.00801  -0.00818   0.02589
   D14       -3.05724  -0.00365   0.00000  -0.01324  -0.01316  -3.07040
   D15       -0.02427   0.00195   0.00000   0.00662   0.00666  -0.01761
   D16        2.74245   0.01655   0.00000   0.05675   0.05483   2.79728
         Item               Value     Threshold  Converged?
 Maximum Force            0.152035     0.000450     NO 
 RMS     Force            0.039787     0.000300     NO 
 Maximum Displacement     0.156335     0.001800     NO 
 RMS     Displacement     0.053048     0.001200     NO 
 Predicted change in Energy=-5.157243D-02
 GradGradGradGradGradGradGradGradGradGradGradGradGradGradGradGradGradGrad

                          Input orientation:                          
 ---------------------------------------------------------------------
 Center     Atomic      Atomic             Coordinates (Angstroms)
 Number     Number       Type             X           Y           Z
 ---------------------------------------------------------------------
      1         19           0        9.384741   -5.514311   -1.973058
      2          7           0        7.468276   -5.058630    0.689283
      3          6           0        6.468353   -6.065598    0.485855
      4          6           0        5.399662   -5.492779   -0.226537
      5          7           0        5.655240   -4.257355   -0.433847
      6          6           0        6.790046   -3.941231    0.032756
      7          1           0        6.382219   -7.213741    0.755915
      8          1           0        4.499653   -6.025919   -0.594756
      9          1           0        7.559861   -3.081425   -0.135411
 ---------------------------------------------------------------------
                    Distance matrix (angstroms):
                    1          2          3          4          5
     1  K    0.000000
     2  N    3.311878   0.000000
     3  C    3.854282   1.433602   0.000000
     4  C    4.351052   2.303558   1.406316   0.000000
     5  N    4.225907   2.278281   2.185577   1.278503   0.000000
     6  C    3.637349   1.462739   2.195842   2.099453   1.267059
     7  H    4.398919   2.414221   1.182617   2.211863   3.268676
     8  H    5.101523   3.375963   2.246125   1.108981   2.118747
     9  H    3.553317   2.144259   3.237692   3.238733   2.258198
                    6          7          8          9
     6  C    0.000000
     7  H    3.376181   0.000000
     8  H    3.159999   2.603707   0.000000
     9  H    1.166259   4.388318   4.271523   0.000000
 Stoichiometry    C3H3KN2
 Framework group  C1[X(C3H3KN2)]
 Deg. of freedom    21
 Full point group                 C1      NOp   1
 Largest Abelian subgroup         C1      NOp   1
 Largest concise Abelian subgroup C1      NOp   1
                         Standard orientation:                         
 ---------------------------------------------------------------------
 Center     Atomic      Atomic             Coordinates (Angstroms)
 Number     Number       Type             X           Y           Z
 ---------------------------------------------------------------------
      1         19           0       -2.399363    0.052658   -0.185905
      2          7           0        0.625174    0.088718    1.162952
      3          6           0        1.270948    1.091145    0.367132
      4          6           0        1.899699    0.458225   -0.719979
      5          7           0        1.715259   -0.803528   -0.627628
      6          6           0        1.006999   -1.088713    0.383548
      7          1           0        1.350684    2.269681    0.424376
      8          1           0        2.430657    0.963516   -1.552207
      9          1           0        0.357656   -1.993968    0.728553
 ---------------------------------------------------------------------
 Rotational constants (GHZ):           5.6882111           1.2903271           1.2504516
 Standard basis: def2SVP (5D, 7F)
 There are   116 symmetry adapted cartesian basis functions of A   symmetry.
 There are   109 symmetry adapted basis functions of A   symmetry.
   109 basis functions,   199 primitive gaussians,   116 cartesian basis functions
    27 alpha electrons       27 beta electrons
       nuclear repulsion energy       243.5646885145 Hartrees.
 NAtoms=    9 NActive=    9 NUniq=    9 SFac= 1.00D+00 NAtFMM=   60 NAOKFM=F Big=F
 Integral buffers will be    131072 words long.
 Raffenetti 2 integral format.
 Two-electron integral symmetry is turned on.
 ------------------------------------------------------------------------------
 Polarizable Continuum Model (PCM)
 =================================
 Model                : PCM.
 Atomic radii         : UFF (Universal Force Field).
 Polarization charges : Total charges.
 Charge compensation  : None.
 Solution method      : On-the-fly selection.
 Cavity type          : Scaled VdW (van der Waals Surface) (Alpha=1.100).
 Cavity algorithm     : GePol (No added spheres)
                        Default sphere list used, NSphG=    9.
                        Lebedev-Laikov grids with approx.  5.0 points / Ang**2.
                        Smoothing algorithm: York/Karplus (Gamma=1.0000).
                        Polarization charges: spherical gaussians, with
                                              point-specific exponents (IZeta= 3).
                        Self-potential: point-specific (ISelfS= 7).
                        Self-field    : sphere-specific E.n sum rule (ISelfD= 2).
 1st derivatives      : Analytical E(r).r(x)/FMM algorithm (CHGder, D1EAlg=3).
                        Cavity 1st derivative terms included.
 Solvent              : Water, Eps=  78.355300 Eps(inf)=   1.777849
 ------------------------------------------------------------------------------
 Spheres list:
 ISph  on   Nord     Re0    Alpha      Xe            Ye            Ze
    1   K      1    1.9060  1.100     -2.399363      0.052658     -0.185905
    2   N      2    1.8300  1.100      0.625174      0.088718      1.162952
    3   C      3    1.9255  1.100      1.270948      1.091145      0.367132
    4   C      4    1.9255  1.100      1.899699      0.458225     -0.719979
    5   N      5    1.8300  1.100      1.715259     -0.803528     -0.627628
    6   C      6    1.9255  1.100      1.006999     -1.088713      0.383548
    7   H      7    1.4430  1.100      1.350684      2.269681      0.424376
    8   H      8    1.4430  1.100      2.430657      0.963516     -1.552207
    9   H      9    1.4430  1.100      0.357656     -1.993968      0.728553
 ------------------------------------------------------------------------------
 One-electron integrals computed using PRISM.
 PrsmSu:  requested number of processors reduced to:  30 ShMem   1 Linda.
   1 Symmetry operations used in ECPInt.
 ECPInt:  NShTT=    1225 NPrTT=    5158 LenC2=    1208 LenP2D=    4104.
 LDataN:  DoStor=T MaxTD1= 4 Len=   56
 Number of processors reduced to  46 by ecpmxn.
 NBasis=   109 RedAO= T EigKep=  2.00D-03  NBF=   109
 NBsUse=   109 1.00D-06 EigRej= -1.00D+00 NBFU=   109
 Initial guess from the checkpoint file:  "/home/zz1/proj/gauss/new/chk/K-POGWOA-6/148.chk"
 B after Tr=     0.000000    0.000000   -0.000000
         Rot=    0.999631    0.027026   -0.000461   -0.002713 Ang=   3.11 deg.
 ExpMin= 1.21D-02 ExpMax= 3.15D+04 ExpMxC= 4.73D+03 IAcc=3 IRadAn=         5 AccDes= 0.00D+00
 Harris functional with IExCor= 1009 and IRadAn=       5 diagonalized for initial guess.
 HarFok:  IExCor= 1009 AccDes= 0.00D+00 IRadAn=         5 IDoV= 1 UseB2=F ITyADJ=14
 ICtDFT=  3500011 ScaDFX=  1.000000  1.000000  1.000000  1.000000
 FoFCou: FMM=F IPFlag=           0 FMFlag=      100000 FMFlg1=           0
         NFxFlg=           0 DoJE=T BraDBF=F KetDBF=T FulRan=T
         wScrn=  0.000000 ICntrl=       500 IOpCl=  0 I1Cent=   200000004 NGrid=           0
         NMat0=    1 NMatS0=      1 NMatT0=    0 NMatD0=    1 NMtDS0=    0 NMtDT0=    0
 Petite list used in FoFCou.
 Keep R1 ints in memory in canonical form, NReq=64164802.
 Requested convergence on RMS density matrix=1.00D-08 within 128 cycles.
 Requested convergence on MAX density matrix=1.00D-06.
 Requested convergence on             energy=1.00D-06.
 No special actions if energy rises.
 CoulSu:  requested number of processors reduced to:  40 ShMem   1 Linda.
 Inv3:  Mode=1 IEnd=     3389907.
 Iteration    1 A*A^-1 deviation from unit magnitude is 3.55D-15 for    235.
 Iteration    1 A*A^-1 deviation from orthogonality  is 1.78D-15 for    761      9.
 Iteration    1 A^-1*A deviation from unit magnitude is 3.11D-15 for    235.
 Iteration    1 A^-1*A deviation from orthogonality  is 2.00D-15 for    795    437.
 CoulSu:  requested number of processors reduced to:  40 ShMem   1 Linda.
 CoulSu:  requested number of processors reduced to:  40 ShMem   1 Linda.
 CoulSu:  requested number of processors reduced to:  41 ShMem   1 Linda.
 CoulSu:  requested number of processors reduced to:  38 ShMem   1 Linda.
 Error on total polarization charges =  0.01018
 SCF Done:  E(RM062X) =  -825.230359565     A.U. after   12 cycles
            NFock= 12  Conv=0.38D-08     -V/T= 2.0041

 **********************************************************************

            Population analysis using the SCF density.

 **********************************************************************

 Orbital symmetries:
       Occupied  (A) (A) (A) (A) (A) (A) (A) (A) (A) (A) (A) (A)
                 (A) (A) (A) (A) (A) (A) (A) (A) (A) (A) (A) (A)
                 (A) (A) (A)
       Virtual   (A) (A) (A) (A) (A) (A) (A) (A) (A) (A) (A) (A)
                 (A) (A) (A) (A) (A) (A) (A) (A) (A) (A) (A) (A)
                 (A) (A) (A) (A) (A) (A) (A) (A) (A) (A) (A) (A)
                 (A) (A) (A) (A) (A) (A) (A) (A) (A) (A) (A) (A)
                 (A) (A) (A) (A) (A) (A) (A) (A) (A) (A) (A) (A)
                 (A) (A) (A) (A) (A) (A) (A) (A) (A) (A) (A) (A)
                 (A) (A) (A) (A) (A) (A) (A) (A) (A) (A)
 The electronic state is 1-A.
 Alpha  occ. eigenvalues -- -131.05282 -14.71058 -14.69483 -13.59694 -10.91379
 Alpha  occ. eigenvalues --  -10.91378 -10.91365 -10.55380 -10.53571 -10.51966
 Alpha  occ. eigenvalues --   -1.48593  -1.05064  -0.86900  -0.81118  -0.81115
 Alpha  occ. eigenvalues --   -0.80996  -0.76255  -0.60969  -0.58211  -0.51640
 Alpha  occ. eigenvalues --   -0.45561  -0.44767  -0.39684  -0.31725  -0.28441
 Alpha  occ. eigenvalues --   -0.28213  -0.23268
 Alpha virt. eigenvalues --   -0.00988   0.04665   0.05641   0.05726   0.08296
 Alpha virt. eigenvalues --    0.11064   0.14375   0.15364   0.17027   0.17952
 Alpha virt. eigenvalues --    0.19581   0.20004   0.20348   0.22272   0.23453
 Alpha virt. eigenvalues --    0.29648   0.31322   0.36896   0.37634   0.43806
 Alpha virt. eigenvalues --    0.48525   0.52850   0.58413   0.60497   0.61006
 Alpha virt. eigenvalues --    0.62117   0.62420   0.64286   0.64660   0.67706
 Alpha virt. eigenvalues --    0.68639   0.71520   0.71865   0.73019   0.76356
 Alpha virt. eigenvalues --    0.77446   0.80581   0.86100   0.89815   0.91095
 Alpha virt. eigenvalues --    0.93605   0.97507   1.02577   1.08367   1.17612
 Alpha virt. eigenvalues --    1.20297   1.23825   1.32193   1.34940   1.46329
 Alpha virt. eigenvalues --    1.48429   1.57093   1.61887   1.67294   1.73221
 Alpha virt. eigenvalues --    1.76545   1.76941   1.88810   1.93321   1.96905
 Alpha virt. eigenvalues --    1.99386   2.01594   2.04298   2.13045   2.24759
 Alpha virt. eigenvalues --    2.29897   2.38642   2.40056   2.52755   2.56329
 Alpha virt. eigenvalues --    2.58094   2.66208   2.71239   2.81039   2.84084
 Alpha virt. eigenvalues --    2.92889   2.96221   3.03989   3.12224   3.21093
 Alpha virt. eigenvalues --    3.43106   3.52241
          Condensed to atoms (all electrons):
               1          2          3          4          5          6
     1  K   18.032377   0.071651   0.002256   0.006167   0.008353   0.000661
     2  N    0.071651   6.817959   0.397957  -0.068757  -0.124435   0.433298
     3  C    0.002256   0.397957   5.086330   0.526949  -0.104651  -0.142729
     4  C    0.006167  -0.068757   0.526949   4.944859   0.549401  -0.166321
     5  N    0.008353  -0.124435  -0.104651   0.549401   6.381394   0.543942
     6  C    0.000661   0.433298  -0.142729  -0.166321   0.543942   4.986973
     7  H   -0.002129  -0.032224   0.382445  -0.054705   0.007082   0.008886
     8  H   -0.001778   0.004473  -0.062064   0.408950  -0.043178   0.009559
     9  H   -0.002651  -0.064266   0.011200   0.004305  -0.035805   0.397482
               7          8          9
     1  K   -0.002129  -0.001778  -0.002651
     2  N   -0.032224   0.004473  -0.064266
     3  C    0.382445  -0.062064   0.011200
     4  C   -0.054705   0.408950   0.004305
     5  N    0.007082  -0.043178  -0.035805
     6  C    0.008886   0.009559   0.397482
     7  H    0.669430  -0.000421  -0.000172
     8  H   -0.000421   0.691734  -0.000171
     9  H   -0.000172  -0.000171   0.651825
 Mulliken charges:
               1
     1  K    0.885092
     2  N   -0.435655
     3  C   -0.097692
     4  C   -0.150848
     5  N   -0.182103
     6  C   -0.071751
     7  H    0.021809
     8  H   -0.007104
     9  H    0.038253
 Sum of Mulliken charges =  -0.00000
 Mulliken charges with hydrogens summed into heavy atoms:
               1
     1  K    0.885092
     2  N   -0.435655
     3  C   -0.075884
     4  C   -0.157953
     5  N   -0.182103
     6  C   -0.033498
 Electronic spatial extent (au):  <R**2>=            900.7912
 Charge=             -0.0000 electrons
 Dipole moment (field-independent basis, Debye):
    X=            -16.2427    Y=              1.3374    Z=             -2.8686  Tot=             16.5482
 Quadrupole moment (field-independent basis, Debye-Ang):
   XX=            -22.3288   YY=            -41.7460   ZZ=            -47.5691
   XY=              3.4561   XZ=              2.6667   YZ=             -2.9545
 Traceless Quadrupole moment (field-independent basis, Debye-Ang):
   XX=             14.8859   YY=             -4.5314   ZZ=            -10.3545
   XY=              3.4561   XZ=              2.6667   YZ=             -2.9545
 Octapole moment (field-independent basis, Debye-Ang**2):
  XXX=           -140.6976  YYY=              3.9422  ZZZ=            -14.5691  XYY=            -22.9113
  XXY=              8.8957  XXZ=             -6.0331  XZZ=            -23.8431  YZZ=              1.2624
  YYZ=              0.7961  XYZ=             -4.2796
 Hexadecapole moment (field-independent basis, Debye-Ang**3):
 XXXX=           -600.2882 YYYY=           -193.9440 ZZZZ=           -168.0270 XXXY=              5.0612
 XXXZ=             22.7923 YYYX=              8.2990 YYYZ=             -4.3089 ZZZX=              4.5540
 ZZZY=             -4.8997 XXYY=           -162.4438 XXZZ=           -148.6261 YYZZ=            -61.7213
 XXYZ=            -10.1268 YYXZ=              5.0963 ZZXY=              3.8941
 N-N= 2.435646885145D+02 E-N=-2.435864309158D+03  KE= 8.218255995422D+02
 PrsmSu:  requested number of processors reduced to:  30 ShMem   1 Linda.
   1 Symmetry operations used in ECPInt.
 ECPInt:  NShTT=    1225 NPrTT=    5158 LenC2=    1208 LenP2D=    4104.
 LDataN:  DoStor=T MaxTD1= 5 Len=  102
 Number of processors reduced to  46 by ecpmxn.
 D1PCM: PCM CHGder 1st derivatives, ID1Alg=3 FixD1E=F DoIter=F DoCFld=F I1PDM=0.
 CoulSu:  requested number of processors reduced to:  48 ShMem   1 Linda.
 CoulSu:  requested number of processors reduced to:  48 ShMem   1 Linda.
 CoulSu:  requested number of processors reduced to:  29 ShMem   1 Linda.
 CoulSu:  requested number of processors reduced to:  30 ShMem   1 Linda.
 Calling FoFJK, ICntrl=      2127 FMM=F ISym2X=0 I1Cent= 0 IOpClX= 0 NMat=1 NMatS=1 NMatT=0.
 ***** Axes restored to original set *****
 -------------------------------------------------------------------
 Center     Atomic                   Forces (Hartrees/Bohr)
 Number     Number              X              Y              Z
 -------------------------------------------------------------------
      1       19          -0.004428967    0.000914855    0.005450208
      2        7          -0.064405657   -0.009461805   -0.034306441
      3        6           0.012123754   -0.008696676    0.004320978
      4        6          -0.004773527   -0.085521529    0.025403307
      5        7          -0.052476688    0.094548499   -0.062380420
      6        6           0.130903141   -0.031647859    0.054543552
      7        1           0.020427087    0.047352203   -0.001548670
      8        1           0.005842700    0.007883328    0.005213284
      9        1          -0.043211842   -0.015371016    0.003304202
 -------------------------------------------------------------------
 Cartesian Forces:  Max     0.130903141 RMS     0.045250170

 GradGradGradGradGradGradGradGradGradGradGradGradGradGradGradGradGradGrad
 Berny optimization.
 Using GEDIIS/GDIIS optimizer.
 FormGI is forming the generalized inverse of G from B-inverse, IUseBI=4.
 Internal  Forces:  Max     0.078597747 RMS     0.025098700
 Search for a local minimum.
 Step number   2 out of a maximum of   10
 All quantities printed in internal units (Hartrees-Bohrs-Radians)
 Mixed Optimization -- RFO/linear search
 Update second derivatives using D2CorX and points    1    2
 DE= -5.55D-02 DEPred=-5.16D-02 R= 1.08D+00
 TightC=F SS=  1.41D+00  RLast= 3.07D-01 DXNew= 5.0454D-01 9.1957D-01
 Trust test= 1.08D+00 RLast= 3.07D-01 DXMaxT set to 5.05D-01
 ITU=  1  0
 Use linear search instead of GDIIS.
     Eigenvalues ---    0.00811   0.01012   0.01546   0.02282   0.02621
     Eigenvalues ---    0.03053   0.09691   0.11312   0.13764   0.15805
     Eigenvalues ---    0.16024   0.20225   0.22451   0.23112   0.23767
     Eigenvalues ---    0.27464   0.31429   0.32093   0.42579   0.78042
     Eigenvalues ---    0.91301
 RFO step:  Lambda=-1.38765604D-02 EMin= 8.10848945D-03
 Quartic linear search produced a step of  1.65833.
 Iteration  1 RMS(Cart)=  0.10883461 RMS(Int)=  0.02061826
 Iteration  2 RMS(Cart)=  0.02217996 RMS(Int)=  0.00694608
 Iteration  3 RMS(Cart)=  0.00019983 RMS(Int)=  0.00694340
 Iteration  4 RMS(Cart)=  0.00000250 RMS(Int)=  0.00694340
 Iteration  5 RMS(Cart)=  0.00000007 RMS(Int)=  0.00694340
 Variable       Old X    -DE/DX   Delta X   Delta X   Delta X     New X
                                 (Linear)    (Quad)   (Total)
    R1        6.25854  -0.00707  -0.05664  -0.16087  -0.21752   6.04102
    R2        2.70912  -0.05157  -0.19410  -0.03088  -0.22635   2.48276
    R3        2.76418  -0.04808  -0.13341  -0.11167  -0.24361   2.52057
    R4        2.65755  -0.00393   0.00074  -0.02719  -0.02867   2.62888
    R5        2.23482  -0.04781  -0.21519  -0.03456  -0.24975   1.98507
    R6        2.41602   0.07860   0.15882  -0.04035   0.11838   2.53440
    R7        2.09567  -0.01026  -0.03942   0.00228  -0.03714   2.05853
    R8        2.39439   0.05658   0.09433   0.01497   0.11159   2.50598
    R9        2.20391  -0.04033  -0.18407  -0.00210  -0.18616   2.01775
    A1        1.76491  -0.00056   0.00048  -0.00090   0.00717   1.77208
    A2        1.58341  -0.00363  -0.00529  -0.00578  -0.01403   1.56937
    A3        1.72084   0.03071   0.07541  -0.00333   0.07233   1.79316
    A4        1.89211   0.01014   0.00503   0.02903   0.03146   1.92357
    A5        2.34665  -0.02664  -0.10388  -0.06806  -0.17087   2.17578
    A6        2.04404   0.01653   0.09927   0.03950   0.13977   2.18381
    A7        1.90056  -0.00230   0.02866  -0.04521  -0.01798   1.88259
    A8        2.20075   0.00392  -0.01031   0.05419   0.04440   2.24514
    A9        2.18089  -0.00156  -0.01797  -0.00823  -0.02569   2.15520
   A10        1.93951  -0.04755  -0.16343   0.01893  -0.14036   1.79914
   A11        1.97140   0.00903   0.05467   0.00103   0.05483   2.02623
   A12        1.89847   0.01682   0.06567   0.09716   0.15848   2.05695
   A13        2.37750  -0.02409  -0.10708  -0.06773  -0.18378   2.19372
    D1       -1.60049  -0.00214  -0.01259   0.00431  -0.01059  -1.61109
    D2        1.50943  -0.00006   0.00582   0.02499   0.02842   1.53785
    D3        0.01303   0.00027  -0.00276  -0.00247  -0.00866   0.00437
    D4        3.12296   0.00235   0.01565   0.01821   0.03035  -3.12987
    D5        1.77086  -0.00029   0.00011  -0.00982  -0.00519   1.76568
    D6       -1.13400  -0.00178  -0.01931  -0.09629  -0.12860  -1.26260
    D7        0.00176  -0.00049  -0.00269  -0.00786  -0.01299  -0.01123
    D8       -2.90311  -0.00198  -0.02210  -0.09433  -0.13640  -3.03951
    D9       -0.02442   0.00050   0.00801   0.01245   0.02760   0.00318
   D10        3.07122   0.00172   0.01613   0.02909   0.04972   3.12094
   D11       -3.14062  -0.00029  -0.00165  -0.00192  -0.00519   3.13738
   D12       -0.04498   0.00093   0.00647   0.01471   0.01694  -0.02804
   D13        0.02589  -0.00168  -0.01357  -0.01811  -0.03510  -0.00922
   D14       -3.07040  -0.00307  -0.02183  -0.03656  -0.05809  -3.12850
   D15       -0.01761   0.00148   0.01104   0.01617   0.03076   0.01315
   D16        2.79728   0.01403   0.09093   0.17276   0.23407   3.03134
         Item               Value     Threshold  Converged?
 Maximum Force            0.078598     0.000450     NO 
 RMS     Force            0.025099     0.000300     NO 
 Maximum Displacement     0.350190     0.001800     NO 
 RMS     Displacement     0.118035     0.001200     NO 
 Predicted change in Energy=-5.297507D-02
 GradGradGradGradGradGradGradGradGradGradGradGradGradGradGradGradGradGrad

                          Input orientation:                          
 ---------------------------------------------------------------------
 Center     Atomic      Atomic             Coordinates (Angstroms)
 Number     Number       Type             X           Y           Z
 ---------------------------------------------------------------------
      1         19           0        9.276585   -5.557001   -1.920124
      2          7           0        7.399931   -5.117195    0.630188
      3          6           0        6.479816   -6.035692    0.440770
      4          6           0        5.403117   -5.500346   -0.258804
      5          7           0        5.675339   -4.211255   -0.509424
      6          6           0        6.865941   -4.041724    0.049403
      7          1           0        6.548455   -7.028428    0.777252
      8          1           0        4.491853   -5.997399   -0.589208
      9          1           0        7.467013   -3.161951   -0.019854
 ---------------------------------------------------------------------
                    Distance matrix (angstroms):
                    1          2          3          4          5
     1  K    0.000000
     2  N    3.196772   0.000000
     3  C    3.691190   1.313821   0.000000
     4  C    4.215086   2.219094   1.391144   0.000000
     5  N    4.095129   2.256914   2.208760   1.341145   0.000000
     6  C    3.462125   1.333828   2.068373   2.088642   1.326107
     7  H    4.108969   2.097486   1.050455   2.172613   3.217814
     8  H    4.985875   3.273928   2.239268   1.089326   2.144135
     9  H    3.552723   2.061561   3.073291   3.128075   2.133263
                    6          7          8          9
     6  C    0.000000
     7  H    3.090463   0.000000
     8  H    3.141462   2.675789   0.000000
     9  H    1.067747   4.053242   4.149157   0.000000
 Stoichiometry    C3H3KN2
 Framework group  C1[X(C3H3KN2)]
 Deg. of freedom    21
 Full point group                 C1      NOp   1
 Largest Abelian subgroup         C1      NOp   1
 Largest concise Abelian subgroup C1      NOp   1
                         Standard orientation:                         
 ---------------------------------------------------------------------
 Center     Atomic      Atomic             Coordinates (Angstroms)
 Number     Number       Type             X           Y           Z
 ---------------------------------------------------------------------
      1         19           0       -2.309650    0.026085   -0.189560
      2          7           0        0.617096    0.202189    1.084212
      3          6           0        1.195941    1.076457    0.292555
      4          6           0        1.849294    0.423980   -0.747966
      5          7           0        1.660569   -0.894368   -0.589821
      6          6           0        0.932289   -0.962807    0.516292
      7          1           0        1.172191    2.117205    0.433035
      8          1           0        2.406425    0.855986   -1.578391
      9          1           0        0.495946   -1.849326    0.920981
 ---------------------------------------------------------------------
 Rotational constants (GHZ):           5.9583182           1.3869793           1.3452702
 Standard basis: def2SVP (5D, 7F)
 There are   116 symmetry adapted cartesian basis functions of A   symmetry.
 There are   109 symmetry adapted basis functions of A   symmetry.
   109 basis functions,   199 primitive gaussians,   116 cartesian basis functions
    27 alpha electrons       27 beta electrons
       nuclear repulsion energy       250.7214179862 Hartrees.
 NAtoms=    9 NActive=    9 NUniq=    9 SFac= 1.00D+00 NAtFMM=   60 NAOKFM=F Big=F
 Integral buffers will be    131072 words long.
 Raffenetti 2 integral format.
 Two-electron integral symmetry is turned on.
 ------------------------------------------------------------------------------
 Polarizable Continuum Model (PCM)
 =================================
 Model                : PCM.
 Atomic radii         : UFF (Universal Force Field).
 Polarization charges : Total charges.
 Charge compensation  : None.
 Solution method      : On-the-fly selection.
 Cavity type          : Scaled VdW (van der Waals Surface) (Alpha=1.100).
 Cavity algorithm     : GePol (No added spheres)
                        Default sphere list used, NSphG=    9.
                        Lebedev-Laikov grids with approx.  5.0 points / Ang**2.
                        Smoothing algorithm: York/Karplus (Gamma=1.0000).
                        Polarization charges: spherical gaussians, with
                                              point-specific exponents (IZeta= 3).
                        Self-potential: point-specific (ISelfS= 7).
                        Self-field    : sphere-specific E.n sum rule (ISelfD= 2).
 1st derivatives      : Analytical E(r).r(x)/FMM algorithm (CHGder, D1EAlg=3).
                        Cavity 1st derivative terms included.
 Solvent              : Water, Eps=  78.355300 Eps(inf)=   1.777849
 ------------------------------------------------------------------------------
 Spheres list:
 ISph  on   Nord     Re0    Alpha      Xe            Ye            Ze
    1   K      1    1.9060  1.100     -2.309650      0.026085     -0.189560
    2   N      2    1.8300  1.100      0.617096      0.202189      1.084212
    3   C      3    1.9255  1.100      1.195941      1.076457      0.292555
    4   C      4    1.9255  1.100      1.849294      0.423980     -0.747966
    5   N      5    1.8300  1.100      1.660569     -0.894368     -0.589821
    6   C      6    1.9255  1.100      0.932289     -0.962807      0.516292
    7   H      7    1.4430  1.100      1.172191      2.117205      0.433035
    8   H      8    1.4430  1.100      2.406425      0.855986     -1.578391
    9   H      9    1.4430  1.100      0.495946     -1.849326      0.920981
 ------------------------------------------------------------------------------
 One-electron integrals computed using PRISM.
 PrsmSu:  requested number of processors reduced to:  30 ShMem   1 Linda.
   1 Symmetry operations used in ECPInt.
 ECPInt:  NShTT=    1225 NPrTT=    5158 LenC2=    1210 LenP2D=    4138.
 LDataN:  DoStor=T MaxTD1= 4 Len=   56
 Number of processors reduced to  46 by ecpmxn.
 NBasis=   109 RedAO= T EigKep=  1.78D-03  NBF=   109
 NBsUse=   109 1.00D-06 EigRej= -1.00D+00 NBFU=   109
 Initial guess from the checkpoint file:  "/home/zz1/proj/gauss/new/chk/K-POGWOA-6/148.chk"
 B after Tr=    -0.000000    0.000000   -0.000000
         Rot=    0.999135    0.041506    0.001059   -0.002276 Ang=   4.77 deg.
 ExpMin= 1.21D-02 ExpMax= 3.15D+04 ExpMxC= 4.73D+03 IAcc=3 IRadAn=         5 AccDes= 0.00D+00
 Harris functional with IExCor= 1009 and IRadAn=       5 diagonalized for initial guess.
 HarFok:  IExCor= 1009 AccDes= 0.00D+00 IRadAn=         5 IDoV= 1 UseB2=F ITyADJ=14
 ICtDFT=  3500011 ScaDFX=  1.000000  1.000000  1.000000  1.000000
 FoFCou: FMM=F IPFlag=           0 FMFlag=      100000 FMFlg1=           0
         NFxFlg=           0 DoJE=T BraDBF=F KetDBF=T FulRan=T
         wScrn=  0.000000 ICntrl=       500 IOpCl=  0 I1Cent=   200000004 NGrid=           0
         NMat0=    1 NMatS0=      1 NMatT0=    0 NMatD0=    1 NMtDS0=    0 NMtDT0=    0
 Petite list used in FoFCou.
 Keep R1 ints in memory in canonical form, NReq=64164802.
 Requested convergence on RMS density matrix=1.00D-08 within 128 cycles.
 Requested convergence on MAX density matrix=1.00D-06.
 Requested convergence on             energy=1.00D-06.
 No special actions if energy rises.
 CoulSu:  requested number of processors reduced to:  40 ShMem   1 Linda.
 Inv3:  Mode=1 IEnd=     3257292.
 Iteration    1 A*A^-1 deviation from unit magnitude is 2.89D-15 for     68.
 Iteration    1 A*A^-1 deviation from orthogonality  is 2.05D-15 for    902    197.
 Iteration    1 A^-1*A deviation from unit magnitude is 2.89D-15 for     68.
 Iteration    1 A^-1*A deviation from orthogonality  is 3.72D-15 for    772    765.
 CoulSu:  requested number of processors reduced to:  40 ShMem   1 Linda.
 CoulSu:  requested number of processors reduced to:  40 ShMem   1 Linda.
 CoulSu:  requested number of processors reduced to:  41 ShMem   1 Linda.
 CoulSu:  requested number of processors reduced to:  39 ShMem   1 Linda.
 Error on total polarization charges =  0.00974
 SCF Done:  E(RM062X) =  -825.270886223     A.U. after   12 cycles
            NFock= 12  Conv=0.61D-08     -V/T= 2.0035

 **********************************************************************

            Population analysis using the SCF density.

 **********************************************************************

 Orbital symmetries:
       Occupied  (A) (A) (A) (A) (A) (A) (A) (A) (A) (A) (A) (A)
                 (A) (A) (A) (A) (A) (A) (A) (A) (A) (A) (A) (A)
                 (A) (A) (A)
       Virtual   (A) (A) (A) (A) (A) (A) (A) (A) (A) (A) (A) (A)
                 (A) (A) (A) (A) (A) (A) (A) (A) (A) (A) (A) (A)
                 (A) (A) (A) (A) (A) (A) (A) (A) (A) (A) (A) (A)
                 (A) (A) (A) (A) (A) (A) (A) (A) (A) (A) (A) (A)
                 (A) (A) (A) (A) (A) (A) (A) (A) (A) (A) (A) (A)
                 (A) (A) (A) (A) (A) (A) (A) (A) (A) (A) (A) (A)
                 (A) (A) (A) (A) (A) (A) (A) (A) (A) (A)
 The electronic state is 1-A.
 Alpha  occ. eigenvalues -- -131.05225 -14.69608 -14.69456 -13.59639 -10.91324
 Alpha  occ. eigenvalues --  -10.91323 -10.91310 -10.53452 -10.51545 -10.51210
 Alpha  occ. eigenvalues --   -1.48551  -1.05936  -0.89393  -0.81083  -0.81079
 Alpha  occ. eigenvalues --   -0.80976  -0.76483  -0.61033  -0.60089  -0.53824
 Alpha  occ. eigenvalues --   -0.45805  -0.44278  -0.41595  -0.31993  -0.29751
 Alpha  occ. eigenvalues --   -0.28984  -0.23197
 Alpha virt. eigenvalues --   -0.00964   0.04672   0.05742   0.05843   0.08429
 Alpha virt. eigenvalues --    0.14000   0.14378   0.16965   0.17708   0.18388
 Alpha virt. eigenvalues --    0.19646   0.20385   0.20873   0.23190   0.24044
 Alpha virt. eigenvalues --    0.31197   0.33553   0.38763   0.40090   0.43883
 Alpha virt. eigenvalues --    0.48975   0.53184   0.59551   0.61574   0.62282
 Alpha virt. eigenvalues --    0.62635   0.64243   0.66163   0.67831   0.69669
 Alpha virt. eigenvalues --    0.71545   0.72121   0.72919   0.73620   0.78269
 Alpha virt. eigenvalues --    0.80746   0.82297   0.83224   0.89901   0.92550
 Alpha virt. eigenvalues --    0.96476   0.96942   1.03459   1.07035   1.22786
 Alpha virt. eigenvalues --    1.24250   1.26202   1.30885   1.34810   1.45294
 Alpha virt. eigenvalues --    1.48036   1.57205   1.67307   1.68026   1.73650
 Alpha virt. eigenvalues --    1.78224   1.83470   1.98106   1.99436   2.00661
 Alpha virt. eigenvalues --    2.01899   2.08911   2.13780   2.19599   2.30939
 Alpha virt. eigenvalues --    2.35701   2.43975   2.54565   2.59802   2.62354
 Alpha virt. eigenvalues --    2.68237   2.78035   2.79270   2.91376   2.91747
 Alpha virt. eigenvalues --    2.96556   2.98551   3.04883   3.20792   3.38546
 Alpha virt. eigenvalues --    3.43279   3.55214
          Condensed to atoms (all electrons):
               1          2          3          4          5          6
     1  K   18.031635   0.067159   0.003718   0.009953   0.013922   0.001325
     2  N    0.067159   6.586490   0.470294  -0.079575  -0.120309   0.496912
     3  C    0.003718   0.470294   4.958869   0.515730  -0.088687  -0.165353
     4  C    0.009953  -0.079575   0.515730   5.004967   0.501181  -0.184745
     5  N    0.013922  -0.120309  -0.088687   0.501181   6.556773   0.520968
     6  C    0.001325   0.496912  -0.165353  -0.184745   0.520968   4.917059
     7  H   -0.005537  -0.051825   0.421427  -0.075125   0.007940   0.012497
     8  H   -0.001773   0.006115  -0.062180   0.414283  -0.042922   0.010465
     9  H   -0.006230  -0.063256   0.012036   0.008035  -0.052935   0.415278
               7          8          9
     1  K   -0.005537  -0.001773  -0.006230
     2  N   -0.051825   0.006115  -0.063256
     3  C    0.421427  -0.062180   0.012036
     4  C   -0.075125   0.414283   0.008035
     5  N    0.007940  -0.042922  -0.052935
     6  C    0.012497   0.010465   0.415278
     7  H    0.728969  -0.000803  -0.000465
     8  H   -0.000803   0.694140  -0.000378
     9  H   -0.000465  -0.000378   0.706814
 Mulliken charges:
               1
     1  K    0.885827
     2  N   -0.312006
     3  C   -0.065854
     4  C   -0.114703
     5  N   -0.295932
     6  C   -0.024406
     7  H   -0.037078
     8  H   -0.016947
     9  H   -0.018900
 Sum of Mulliken charges =  -0.00000
 Mulliken charges with hydrogens summed into heavy atoms:
               1
     1  K    0.885827
     2  N   -0.312006
     3  C   -0.102932
     4  C   -0.131651
     5  N   -0.295932
     6  C   -0.043306
 Electronic spatial extent (au):  <R**2>=            846.1393
 Charge=              0.0000 electrons
 Dipole moment (field-independent basis, Debye):
    X=            -15.8662    Y=              1.4921    Z=             -2.0522  Tot=             16.0678
 Quadrupole moment (field-independent basis, Debye-Ang):
   XX=            -23.9440   YY=            -42.5670   ZZ=            -45.9950
   XY=              3.8617   XZ=              3.2698   YZ=             -3.2671
 Traceless Quadrupole moment (field-independent basis, Debye-Ang):
   XX=             13.5580   YY=             -5.0650   ZZ=             -8.4930
   XY=              3.8617   XZ=              3.2698   YZ=             -3.2671
 Octapole moment (field-independent basis, Debye-Ang**2):
  XXX=           -130.4611  YYY=              4.5724  ZZZ=            -10.9408  XYY=            -23.4131
  XXY=              8.4839  XXZ=             -4.7051  XZZ=            -21.4567  YZZ=              0.7326
  YYZ=              2.3777  XYZ=             -4.6076
 Hexadecapole moment (field-independent basis, Debye-Ang**3):
 XXXX=           -568.9883 YYYY=           -183.6520 ZZZZ=           -158.9461 XXXY=             10.5982
 XXXZ=             23.1293 YYYX=              8.5569 YYYZ=             -4.4236 ZZZX=              6.7716
 ZZZY=             -5.1817 XXYY=           -154.3671 XXZZ=           -136.6449 YYZZ=            -57.8886
 XXYZ=             -9.7529 YYXZ=              7.5047 ZZXY=              4.3310
 N-N= 2.507214179862D+02 E-N=-2.450630502323D+03  KE= 8.224006905184D+02
 PrsmSu:  requested number of processors reduced to:  30 ShMem   1 Linda.
   1 Symmetry operations used in ECPInt.
 ECPInt:  NShTT=    1225 NPrTT=    5158 LenC2=    1210 LenP2D=    4138.
 LDataN:  DoStor=T MaxTD1= 5 Len=  102
 Number of processors reduced to  46 by ecpmxn.
 D1PCM: PCM CHGder 1st derivatives, ID1Alg=3 FixD1E=F DoIter=F DoCFld=F I1PDM=0.
 CoulSu:  requested number of processors reduced to:  48 ShMem   1 Linda.
 CoulSu:  requested number of processors reduced to:  48 ShMem   1 Linda.
 CoulSu:  requested number of processors reduced to:  29 ShMem   1 Linda.
 CoulSu:  requested number of processors reduced to:  30 ShMem   1 Linda.
 Calling FoFJK, ICntrl=      2127 FMM=F ISym2X=0 I1Cent= 0 IOpClX= 0 NMat=1 NMatS=1 NMatT=0.
 ***** Axes restored to original set *****
 -------------------------------------------------------------------
 Center     Atomic                   Forces (Hartrees/Bohr)
 Number     Number              X              Y              Z
 -------------------------------------------------------------------
      1       19          -0.004428450    0.000859028    0.004999072
      2        7           0.033854096    0.014733680    0.008208228
      3        6          -0.035526458   -0.018767866   -0.012140807
      4        6          -0.003831370   -0.012874197    0.001383789
      5        7          -0.009304734    0.018503297   -0.010545398
      6        6           0.011633622    0.005613656   -0.003031515
      7        1           0.006254110   -0.030844910    0.012455325
      8        1          -0.002148461    0.000221937    0.000135804
      9        1           0.003497645    0.022555375   -0.001464498
 -------------------------------------------------------------------
 Cartesian Forces:  Max     0.035526458 RMS     0.014668763

 GradGradGradGradGradGradGradGradGradGradGradGradGradGradGradGradGradGrad
 Berny optimization.
 Using GEDIIS/GDIIS optimizer.
 FormGI is forming the generalized inverse of G from B-inverse, IUseBI=4.
 Internal  Forces:  Max     0.048232795 RMS     0.012496178
 Search for a local minimum.
 Step number   3 out of a maximum of   10
 All quantities printed in internal units (Hartrees-Bohrs-Radians)
 Mixed Optimization -- RFO/linear search
 Update second derivatives using D2CorX and points    2    3
 DE= -4.05D-02 DEPred=-5.30D-02 R= 7.65D-01
 TightC=F SS=  1.41D+00  RLast= 7.24D-01 DXNew= 8.4853D-01 2.1726D+00
 Trust test= 7.65D-01 RLast= 7.24D-01 DXMaxT set to 8.49D-01
 ITU=  1  1  0
 Use linear search instead of GDIIS.
     Eigenvalues ---    0.00756   0.01201   0.01528   0.01694   0.02570
     Eigenvalues ---    0.02952   0.08982   0.12252   0.13547   0.15984
     Eigenvalues ---    0.16047   0.22073   0.23072   0.23149   0.25421
     Eigenvalues ---    0.30055   0.31450   0.40806   0.42349   0.73067
     Eigenvalues ---    0.88946
 RFO step:  Lambda=-1.46013939D-02 EMin= 7.56223639D-03
 Quartic linear search produced a step of -0.13529.
 Iteration  1 RMS(Cart)=  0.05724928 RMS(Int)=  0.01018465
 Iteration  2 RMS(Cart)=  0.00901976 RMS(Int)=  0.00088154
 Iteration  3 RMS(Cart)=  0.00000886 RMS(Int)=  0.00088152
 Iteration  4 RMS(Cart)=  0.00000000 RMS(Int)=  0.00088152
 Variable       Old X    -DE/DX   Delta X   Delta X   Delta X     New X
                                 (Linear)    (Quad)   (Total)
    R1        6.04102  -0.00671   0.02943  -0.28955  -0.26012   5.78090
    R2        2.48276   0.04823   0.03062   0.06215   0.09275   2.57551
    R3        2.52057   0.02168   0.03296   0.00114   0.03428   2.55484
    R4        2.62888   0.00739   0.00388   0.00828   0.01198   2.64086
    R5        1.98507   0.03355   0.03379   0.05878   0.09257   2.07764
    R6        2.53440   0.02554  -0.01601   0.05132   0.03521   2.56961
    R7        2.05853   0.00166   0.00503  -0.00524  -0.00021   2.05832
    R8        2.50598   0.01563  -0.01510   0.03815   0.02319   2.52917
    R9        2.01775   0.02064   0.02519   0.02126   0.04645   2.06420
    A1        1.77208  -0.00048  -0.00097  -0.00443  -0.00493   1.76715
    A2        1.56937  -0.00148   0.00190  -0.00923  -0.00742   1.56196
    A3        1.79316   0.00517  -0.00979   0.03034   0.02134   1.81451
    A4        1.92357  -0.00992  -0.00426  -0.03301  -0.03707   1.88651
    A5        2.17578   0.00051   0.02312  -0.04557  -0.02258   2.15320
    A6        2.18381   0.00941  -0.01891   0.07843   0.05939   2.24320
    A7        1.88259   0.00536   0.00243   0.02115   0.02363   1.90621
    A8        2.24514  -0.00183  -0.00601   0.00090  -0.00530   2.23984
    A9        2.15520  -0.00352   0.00348  -0.02136  -0.01808   2.13712
   A10        1.79914   0.00736   0.01899  -0.00740   0.01226   1.81140
   A11        2.02623  -0.00797  -0.00742  -0.01106  -0.02012   2.00611
   A12        2.05695   0.01277  -0.02144   0.09645   0.07234   2.12930
   A13        2.19372  -0.00446   0.02486  -0.06838  -0.04612   2.14761
    D1       -1.61109   0.00016   0.00143  -0.00336  -0.00210  -1.61319
    D2        1.53785   0.00039  -0.00385   0.01810   0.01422   1.55208
    D3        0.00437  -0.00039   0.00117  -0.00757  -0.00657  -0.00221
    D4       -3.12987  -0.00016  -0.00411   0.01389   0.00975  -3.12013
    D5        1.76568   0.00008   0.00070   0.00054   0.00182   1.76749
    D6       -1.26260  -0.00259   0.01740  -0.14734  -0.13101  -1.39362
    D7       -0.01123   0.00067   0.00176   0.00582   0.00775  -0.00348
    D8       -3.03951  -0.00200   0.01845  -0.14205  -0.12508   3.11859
    D9        0.00318   0.00007  -0.00373   0.00731   0.00381   0.00699
   D10        3.12094   0.00084  -0.00673   0.03945   0.03260  -3.12964
   D11        3.13738  -0.00021   0.00070  -0.01492  -0.01407   3.12331
   D12       -0.02804   0.00055  -0.00229   0.01723   0.01473  -0.01331
   D13       -0.00922   0.00023   0.00475  -0.00338   0.00062  -0.00860
   D14       -3.12850  -0.00051   0.00786  -0.03381  -0.02631   3.12838
   D15        0.01315  -0.00062  -0.00416  -0.00168  -0.00549   0.00766
   D16        3.03134   0.00352  -0.03167   0.17191   0.13766  -3.11418
         Item               Value     Threshold  Converged?
 Maximum Force            0.048233     0.000450     NO 
 RMS     Force            0.012496     0.000300     NO 
 Maximum Displacement     0.179411     0.001800     NO 
 RMS     Displacement     0.060751     0.001200     NO 
 Predicted change in Energy=-8.963849D-03
 GradGradGradGradGradGradGradGradGradGradGradGradGradGradGradGradGradGrad

                          Input orientation:                          
 ---------------------------------------------------------------------
 Center     Atomic      Atomic             Coordinates (Angstroms)
 Number     Number       Type             X           Y           Z
 ---------------------------------------------------------------------
      1         19           0        9.197442   -5.569974   -1.855125
      2          7           0        7.431820   -5.123194    0.602760
      3          6           0        6.478398   -6.080323    0.422790
      4          6           0        5.412106   -5.505064   -0.273671
      5          7           0        5.699317   -4.201941   -0.535160
      6          6           0        6.907937   -4.025729    0.012060
      7          1           0        6.573176   -7.107405    0.803433
      8          1           0        4.476488   -5.970348   -0.581109
      9          1           0        7.431366   -3.067011    0.004222
 ---------------------------------------------------------------------
                    Distance matrix (angstroms):
                    1          2          3          4          5
     1  K    0.000000
     2  N    3.059123   0.000000
     3  C    3.583651   1.362901   0.000000
     4  C    4.102924   2.234547   1.397483   0.000000
     5  N    3.981294   2.268289   2.247877   1.359778   0.000000
     6  C    3.333604   1.351966   2.138822   2.123108   1.338380
     7  H    4.039604   2.171321   1.099441   2.252939   3.316200
     8  H    4.906202   3.294420   2.242220   1.089214   2.150508
     9  H    3.583437   2.141527   3.188008   3.177852   2.139859
                    6          7          8          9
     6  C    0.000000
     7  H    3.199229   0.000000
     8  H    3.169437   2.757889   0.000000
     9  H    1.092328   4.207139   4.183692   0.000000
 Stoichiometry    C3H3KN2
 Framework group  C1[X(C3H3KN2)]
 Deg. of freedom    21
 Full point group                 C1      NOp   1
 Largest Abelian subgroup         C1      NOp   1
 Largest concise Abelian subgroup C1      NOp   1
                         Standard orientation:                         
 ---------------------------------------------------------------------
 Center     Atomic      Atomic             Coordinates (Angstroms)
 Number     Number       Type             X           Y           Z
 ---------------------------------------------------------------------
      1         19           0       -2.226443    0.030939   -0.200991
      2          7           0        0.544398    0.179129    1.086918
      3          6           0        1.153356    1.111413    0.301095
      4          6           0        1.821720    0.442076   -0.727610
      5          7           0        1.625485   -0.896628   -0.592109
      6          6           0        0.864892   -0.998087    0.504461
      7          1           0        1.113506    2.191467    0.502754
      8          1           0        2.421310    0.866374   -1.531880
      9          1           0        0.538621   -1.955608    0.916627
 ---------------------------------------------------------------------
 Rotational constants (GHZ):           5.7949807           1.4739256           1.4164444
 Standard basis: def2SVP (5D, 7F)
 There are   116 symmetry adapted cartesian basis functions of A   symmetry.
 There are   109 symmetry adapted basis functions of A   symmetry.
   109 basis functions,   199 primitive gaussians,   116 cartesian basis functions
    27 alpha electrons       27 beta electrons
       nuclear repulsion energy       251.2356813162 Hartrees.
 NAtoms=    9 NActive=    9 NUniq=    9 SFac= 1.00D+00 NAtFMM=   60 NAOKFM=F Big=F
 Integral buffers will be    131072 words long.
 Raffenetti 2 integral format.
 Two-electron integral symmetry is turned on.
 ------------------------------------------------------------------------------
 Polarizable Continuum Model (PCM)
 =================================
 Model                : PCM.
 Atomic radii         : UFF (Universal Force Field).
 Polarization charges : Total charges.
 Charge compensation  : None.
 Solution method      : On-the-fly selection.
 Cavity type          : Scaled VdW (van der Waals Surface) (Alpha=1.100).
 Cavity algorithm     : GePol (No added spheres)
                        Default sphere list used, NSphG=    9.
                        Lebedev-Laikov grids with approx.  5.0 points / Ang**2.
                        Smoothing algorithm: York/Karplus (Gamma=1.0000).
                        Polarization charges: spherical gaussians, with
                                              point-specific exponents (IZeta= 3).
                        Self-potential: point-specific (ISelfS= 7).
                        Self-field    : sphere-specific E.n sum rule (ISelfD= 2).
 1st derivatives      : Analytical E(r).r(x)/FMM algorithm (CHGder, D1EAlg=3).
                        Cavity 1st derivative terms included.
 Solvent              : Water, Eps=  78.355300 Eps(inf)=   1.777849
 ------------------------------------------------------------------------------
 Spheres list:
 ISph  on   Nord     Re0    Alpha      Xe            Ye            Ze
    1   K      1    1.9060  1.100     -2.226443      0.030939     -0.200991
    2   N      2    1.8300  1.100      0.544398      0.179129      1.086918
    3   C      3    1.9255  1.100      1.153356      1.111413      0.301095
    4   C      4    1.9255  1.100      1.821720      0.442076     -0.727610
    5   N      5    1.8300  1.100      1.625485     -0.896628     -0.592109
    6   C      6    1.9255  1.100      0.864892     -0.998087      0.504461
    7   H      7    1.4430  1.100      1.113506      2.191467      0.502754
    8   H      8    1.4430  1.100      2.421310      0.866374     -1.531880
    9   H      9    1.4430  1.100      0.538621     -1.955608      0.916627
 ------------------------------------------------------------------------------
 One-electron integrals computed using PRISM.
 PrsmSu:  requested number of processors reduced to:  30 ShMem   1 Linda.
   1 Symmetry operations used in ECPInt.
 ECPInt:  NShTT=    1225 NPrTT=    5158 LenC2=    1210 LenP2D=    4133.
 LDataN:  DoStor=T MaxTD1= 4 Len=   56
 Number of processors reduced to  46 by ecpmxn.
 NBasis=   109 RedAO= T EigKep=  1.88D-03  NBF=   109
 NBsUse=   109 1.00D-06 EigRej= -1.00D+00 NBFU=   109
 Initial guess from the checkpoint file:  "/home/zz1/proj/gauss/new/chk/K-POGWOA-6/148.chk"
 B after Tr=    -0.000000   -0.000000    0.000000
         Rot=    0.999957   -0.007902    0.004933    0.000097 Ang=  -1.07 deg.
 ExpMin= 1.21D-02 ExpMax= 3.15D+04 ExpMxC= 4.73D+03 IAcc=3 IRadAn=         5 AccDes= 0.00D+00
 Harris functional with IExCor= 1009 and IRadAn=       5 diagonalized for initial guess.
 HarFok:  IExCor= 1009 AccDes= 0.00D+00 IRadAn=         5 IDoV= 1 UseB2=F ITyADJ=14
 ICtDFT=  3500011 ScaDFX=  1.000000  1.000000  1.000000  1.000000
 FoFCou: FMM=F IPFlag=           0 FMFlag=      100000 FMFlg1=           0
         NFxFlg=           0 DoJE=T BraDBF=F KetDBF=T FulRan=T
         wScrn=  0.000000 ICntrl=       500 IOpCl=  0 I1Cent=   200000004 NGrid=           0
         NMat0=    1 NMatS0=      1 NMatT0=    0 NMatD0=    1 NMtDS0=    0 NMtDT0=    0
 Petite list used in FoFCou.
 Keep R1 ints in memory in canonical form, NReq=64164802.
 Requested convergence on RMS density matrix=1.00D-08 within 128 cycles.
 Requested convergence on MAX density matrix=1.00D-06.
 Requested convergence on             energy=1.00D-06.
 No special actions if energy rises.
 CoulSu:  requested number of processors reduced to:  40 ShMem   1 Linda.
 Inv3:  Mode=1 IEnd=     3195072.
 Iteration    1 A*A^-1 deviation from unit magnitude is 3.33D-15 for    220.
 Iteration    1 A*A^-1 deviation from orthogonality  is 1.51D-15 for    960    162.
 Iteration    1 A^-1*A deviation from unit magnitude is 3.33D-15 for    196.
 Iteration    1 A^-1*A deviation from orthogonality  is 2.44D-15 for    832    441.
 CoulSu:  requested number of processors reduced to:  40 ShMem   1 Linda.
 CoulSu:  requested number of processors reduced to:  40 ShMem   1 Linda.
 CoulSu:  requested number of processors reduced to:  41 ShMem   1 Linda.
 CoulSu:  requested number of processors reduced to:  39 ShMem   1 Linda.
 Error on total polarization charges =  0.00987
 SCF Done:  E(RM062X) =  -825.278988929     A.U. after   11 cycles
            NFock= 11  Conv=0.98D-08     -V/T= 2.0040

 **********************************************************************

            Population analysis using the SCF density.

[...]
 PrsmSu:  requested number of processors reduced to:  30 ShMem   1 Linda.
   1 Symmetry operations used in ECPInt.
 ECPInt:  NShTT=    1225 NPrTT=    5158 LenC2=    1217 LenP2D=    4195.
 LDataN:  DoStor=T MaxTD1= 5 Len=  102
 Number of processors reduced to  46 by ecpmxn.
 D1PCM: PCM CHGder 1st derivatives, ID1Alg=3 FixD1E=F DoIter=F DoCFld=F I1PDM=0.
 CoulSu:  requested number of processors reduced to:  48 ShMem   1 Linda.
 CoulSu:  requested number of processors reduced to:  48 ShMem   1 Linda.
 CoulSu:  requested number of processors reduced to:  29 ShMem   1 Linda.
 CoulSu:  requested number of processors reduced to:  30 ShMem   1 Linda.
 Calling FoFJK, ICntrl=      2127 FMM=F ISym2X=0 I1Cent= 0 IOpClX= 0 NMat=1 NMatS=1 NMatT=0.
 ***** Axes restored to original set *****
 -------------------------------------------------------------------
 Center     Atomic                   Forces (Hartrees/Bohr)
 Number     Number              X              Y              Z
 -------------------------------------------------------------------
      1       19          -0.000221557    0.000909053   -0.002147408
      2        7           0.006862989    0.006574499    0.007439645
      3        6          -0.007716369   -0.006732433   -0.004906632
      4        6          -0.003714576   -0.005347305    0.001914493
      5        7          -0.005410827    0.007577089   -0.009858922
      6        6           0.009788549   -0.002402159    0.005900386
      7        1           0.001956102   -0.006853156    0.003634314
      8        1          -0.000919059   -0.000199304   -0.000367849
      9        1          -0.000625252    0.006473717   -0.001608026
 -------------------------------------------------------------------
 Cartesian Forces:  Max     0.009858922 RMS     0.005292741

 GradGradGradGradGradGradGradGradGradGradGradGradGradGradGradGradGradGrad
 Berny optimization.
 Using GEDIIS/GDIIS optimizer.
 FormGI is forming the generalized inverse of G from B-inverse, IUseBI=4.
 Internal  Forces:  Max     0.013660404 RMS     0.003863719
 Search for a local minimum.
 Step number  10 out of a maximum of   10
 All quantities printed in internal units (Hartrees-Bohrs-Radians)
 Mixed Optimization -- RFO/linear search
 Update second derivatives using D2CorX and points    6    7    8    9   10
 DE= -7.55D-04 DEPred=-5.31D-04 R= 1.42D+00
 TightC=F SS=  1.41D+00  RLast= 1.43D-01 DXNew= 2.1615D+00 4.2792D-01
 Trust test= 1.42D+00 RLast= 1.43D-01 DXMaxT set to 1.29D+00
 ITU=  1  0  1  1  0  1  1  1  1  0
 Use linear search instead of GDIIS.
     Eigenvalues ---    0.00430   0.01259   0.01624   0.02537   0.02904
     Eigenvalues ---    0.04829   0.06407   0.13714   0.15139   0.16045
     Eigenvalues ---    0.16099   0.22203   0.23308   0.25334   0.26833
     Eigenvalues ---    0.31071   0.32653   0.42247   0.53269   0.86643
     Eigenvalues ---    0.94397
 RFO step:  Lambda=-1.83102513D-03 EMin= 4.30087617D-03
 Quartic linear search produced a step of  1.04982.
 Iteration  1 RMS(Cart)=  0.12633709 RMS(Int)=  0.01001281
 Iteration  2 RMS(Cart)=  0.01127025 RMS(Int)=  0.00086846
 Iteration  3 RMS(Cart)=  0.00003202 RMS(Int)=  0.00086816
 Iteration  4 RMS(Cart)=  0.00000001 RMS(Int)=  0.00086816
 Variable       Old X    -DE/DX   Delta X   Delta X   Delta X     New X
                                 (Linear)    (Quad)   (Total)
    R1        5.24072   0.00162   0.12920   0.15278   0.28197   5.52269
    R2        2.54917   0.01366   0.00416   0.00571   0.01004   2.55921
    R3        2.54478   0.00306  -0.00131  -0.00086  -0.00193   2.54284
    R4        2.63003   0.00378   0.00142   0.00452   0.00581   2.63584
    R5        2.04216   0.00783   0.00284   0.00642   0.00926   2.05142
    R6        2.55880   0.00915   0.00269   0.00483   0.00725   2.56605
    R7        2.05876   0.00096   0.00013  -0.00020  -0.00006   2.05870
    R8        2.51584   0.00999   0.00341   0.00591   0.00930   2.52515
    R9        2.05224   0.00538   0.00182   0.00383   0.00565   2.05789
    A1        1.42887   0.00077  -0.00213  -0.14385  -0.14353   1.28534
    A2        1.48516  -0.00337  -0.01492  -0.08635  -0.09766   1.38751
    A3        1.80295   0.00100   0.00105   0.00098   0.00147   1.80442
    A4        1.90195  -0.00114  -0.00122  -0.00084  -0.00178   1.90017
    A5        2.15100  -0.00102  -0.00113  -0.00240  -0.00367   2.14733
    A6        2.22992   0.00217   0.00227   0.00346   0.00557   2.23549
    A7        1.89606   0.00075   0.00023  -0.00013  -0.00008   1.89598
    A8        2.24761  -0.00010  -0.00011   0.00124   0.00108   2.24869
    A9        2.13928  -0.00062  -0.00037  -0.00106  -0.00147   2.13781
   A10        1.80965   0.00009  -0.00030  -0.00074  -0.00109   1.80856
   A11        2.01372  -0.00065  -0.00003   0.00081   0.00099   2.01471
   A12        2.09720   0.00440   0.00572   0.00862   0.01393   2.11113
   A13        2.17201  -0.00375  -0.00478  -0.00948  -0.01467   2.15734
    D1       -1.42076   0.00252   0.02967   0.12559   0.15668  -1.26408
    D2        1.69603   0.00278   0.02625   0.13427   0.16199   1.85802
    D3        0.02716  -0.00098   0.01341  -0.00136   0.01125   0.03841
    D4       -3.13923  -0.00071   0.00999   0.00732   0.01656  -3.12267
    D5        1.38374  -0.00018  -0.00725  -0.17522  -0.18296   1.20078
    D6       -1.73506  -0.00005  -0.03395  -0.17271  -0.20758  -1.94264
    D7       -0.02010   0.00001  -0.00116  -0.00420  -0.00459  -0.02469
    D8       -3.13890   0.00014  -0.02786  -0.00169  -0.02921   3.11507
    D9       -0.02653   0.00169  -0.02130   0.00623  -0.01441  -0.04094
   D10        3.13825   0.00019  -0.00134   0.00372   0.00257   3.14082
   D11        3.14130   0.00147  -0.01762  -0.00283  -0.01989   3.12141
   D12        0.02289  -0.00003   0.00234  -0.00535  -0.00291   0.01998
   D13        0.01339  -0.00153   0.01929  -0.00819   0.01095   0.02434
   D14        3.13354  -0.00013   0.00082  -0.00583  -0.00469   3.12885
   D15        0.00423   0.00101  -0.01161   0.00793  -0.00406   0.00017
   D16        3.12194   0.00100   0.01672   0.00557   0.02172  -3.13953
         Item               Value     Threshold  Converged?
 Maximum Force            0.013660     0.000450     NO 
 RMS     Force            0.003864     0.000300     NO 
 Maximum Displacement     0.548101     0.001800     NO 
 RMS     Displacement     0.135084     0.001200     NO 
 Predicted change in Energy=-1.030844D-03
 Optimization stopped.
    -- Number of steps exceeded,  NStep=  10
    -- Flag reset to prevent archiving.
                           ----------------------------
                           ! Non-Optimized Parameters !
                           ! (Angstroms and Degrees)  !
 --------------------------                            --------------------------
 ! Name  Definition              Value          Derivative Info.                !
 --------------------------------------------------------------------------------
 ! R1    R(1,2)                  2.9225         -DE/DX =    0.0016              !
 ! R2    R(2,3)                  1.3543         -DE/DX =    0.0137              !
 ! R3    R(2,6)                  1.3456         -DE/DX =    0.0031              !
 ! R4    R(3,4)                  1.3948         -DE/DX =    0.0038              !
 ! R5    R(3,7)                  1.0856         -DE/DX =    0.0078              !
 ! R6    R(4,5)                  1.3579         -DE/DX =    0.0091              !
 ! R7    R(4,8)                  1.0894         -DE/DX =    0.001               !
 ! R8    R(5,6)                  1.3362         -DE/DX =    0.01                !
 ! R9    R(6,9)                  1.089          -DE/DX =    0.0054              !
 ! A1    A(1,2,3)               73.6447         -DE/DX =    0.0008              !
 ! A2    A(1,2,6)               79.4982         -DE/DX =   -0.0034              !
 ! A3    A(3,2,6)              103.3857         -DE/DX =    0.001               !
 ! A4    A(2,3,4)              108.872          -DE/DX =   -0.0011              !
 ! A5    A(2,3,7)              123.0331         -DE/DX =   -0.001               !
 ! A6    A(4,3,7)              128.084          -DE/DX =    0.0022              !
 ! A7    A(3,4,5)              108.6316         -DE/DX =    0.0008              !
 ! A8    A(3,4,8)              128.8403         -DE/DX =   -0.0001              !
 ! A9    A(5,4,8)              122.4877         -DE/DX =   -0.0006              !
 ! A10   A(4,5,6)              103.6227         -DE/DX =    0.0001              !
 ! A11   A(2,6,5)              115.4345         -DE/DX =   -0.0007              !
 ! A12   A(2,6,9)              120.9589         -DE/DX =    0.0044              !
 ! A13   A(5,6,9)              123.6065         -DE/DX =   -0.0037              !
 ! D1    D(1,2,3,4)            -72.4267         -DE/DX =    0.0025              !
 ! D2    D(1,2,3,7)            106.4566         -DE/DX =    0.0028              !
 ! D3    D(6,2,3,4)              2.2008         -DE/DX =   -0.001               !
 ! D4    D(6,2,3,7)           -178.9159         -DE/DX =   -0.0007              !
 ! D5    D(1,2,6,5)             68.7998         -DE/DX =   -0.0002              !
 ! D6    D(1,2,6,9)           -111.3053         -DE/DX =   -0.0001              !
 ! D7    D(3,2,6,5)             -1.4146         -DE/DX =    0.0                 !
 ! D8    D(3,2,6,9)            178.4802         -DE/DX =    0.0001              !
 ! D9    D(2,3,4,5)             -2.3457         -DE/DX =    0.0017              !
 ! D10   D(2,3,4,8)            179.9555         -DE/DX =    0.0002              !
 ! D11   D(7,3,4,5)            178.8437         -DE/DX =    0.0015              !
 ! D12   D(7,3,4,8)              1.1449         -DE/DX =    0.0                 !
 ! D13   D(3,4,5,6)              1.3945         -DE/DX =   -0.0015              !
 ! D14   D(8,4,5,6)            179.2696         -DE/DX =   -0.0001              !
 ! D15   D(4,5,6,2)              0.01           -DE/DX =    0.001               !
 ! D16   D(4,5,6,9)           -179.8818         -DE/DX =    0.001               !
 --------------------------------------------------------------------------------
 GradGradGradGradGradGradGradGradGradGradGradGradGradGradGradGradGradGrad

                          Input orientation:                          
 ---------------------------------------------------------------------
 Center     Atomic      Atomic             Coordinates (Angstroms)
 Number     Number       Type             X           Y           Z
 ---------------------------------------------------------------------
      1         19           0        8.444398   -5.753644   -1.766829
      2          7           0        7.447093   -5.045314    0.722082
      3          6           0        6.571174   -6.031416    0.439126
      4          6           0        5.575066   -5.527191   -0.391836
      5          7           0        5.811990   -4.210640   -0.601691
      6          6           0        6.929964   -3.978743    0.082992
      7          1           0        6.680767   -7.043351    0.802185
      8          1           0        4.714078   -6.043009   -0.815549
      9          1           0        7.433519   -3.017682    0.129720
 ---------------------------------------------------------------------
                    Distance matrix (angstroms):
                    1          2          3          4          5
     1  K    0.000000
     2  N    2.773270   0.000000
     3  C    2.907294   1.348961   0.000000
     4  C    3.189820   2.231033   1.391752   0.000000
     5  N    3.266187   2.263320   2.230445   1.354060   0.000000
     6  C    2.977519   1.346637   2.114007   2.111611   1.331327
     7  H    3.372472   2.141454   1.080664   2.224186   3.278703
     8  H    3.860564   3.290757   2.241239   1.089450   2.146793
     9  H    3.479118   2.112432   3.149915   3.165992   2.141838
                    6          7          8          9
     6  C    0.000000
     7  H    3.157714   0.000000
     8  H    3.158911   2.735985   0.000000
     9  H    1.085997   4.150284   4.176302   0.000000
 Stoichiometry    C3H3KN2
 Framework group  C1[X(C3H3KN2)]
 Deg. of freedom    21
 Full point group                 C1      NOp   1
 Largest Abelian subgroup         C1      NOp   1
 Largest concise Abelian subgroup C1      NOp   1
                         Standard orientation:                         
 ---------------------------------------------------------------------
 Center     Atomic      Atomic             Coordinates (Angstroms)
 Number     Number       Type             X           Y           Z
 ---------------------------------------------------------------------
      1         19           0       -1.808589    0.017138   -0.155228
      2          7           0        0.601081   -0.306690    1.178809
      3          6           0        0.818216    0.931934    0.690589
      4          6           0        1.238931    0.829645   -0.632101
      5          7           0        1.317085   -0.481499   -0.961144
      6          6           0        0.931320   -1.108202    0.148298
      7          1           0        0.653442    1.832391    1.264925
      8          1           0        1.498784    1.625729   -1.328972
      9          1           0        0.852998   -2.186680    0.249001
 ---------------------------------------------------------------------
 Rotational constants (GHZ):           5.2434763           2.0681812           2.0556620

 **********************************************************************

            Population analysis using the SCF density.

 **********************************************************************

 Orbital symmetries:
       Occupied  (A) (A) (A) (A) (A) (A) (A) (A) (A) (A) (A) (A)
                 (A) (A) (A) (A) (A) (A) (A) (A) (A) (A) (A) (A)
                 (A) (A) (A)
       Virtual   (A) (A) (A) (A) (A) (A) (A) (A) (A) (A) (A) (A)
                 (A) (A) (A) (A) (A) (A) (A) (A) (A) (A) (A) (A)
                 (A) (A) (A) (A) (A) (A) (A) (A) (A) (A) (A) (A)
                 (A) (A) (A) (A) (A) (A) (A) (A) (A) (A) (A) (A)
                 (A) (A) (A) (A) (A) (A) (A) (A) (A) (A) (A) (A)
                 (A) (A) (A) (A) (A) (A) (A) (A) (A) (A) (A) (A)
                 (A) (A) (A) (A) (A) (A) (A) (A) (A) (A)
 The electronic state is 1-A.
 Alpha  occ. eigenvalues -- -131.03613 -14.70966 -14.70928 -13.58083 -10.89768
 Alpha  occ. eigenvalues --  -10.89763 -10.89741 -10.55173 -10.53227 -10.53075
 Alpha  occ. eigenvalues --   -1.47339  -1.06362  -0.89839  -0.80099  -0.79995
 Alpha  occ. eigenvalues --   -0.79853  -0.77509  -0.61772  -0.60718  -0.54501
 Alpha  occ. eigenvalues --   -0.46431  -0.44897  -0.42850  -0.33295  -0.30464
 Alpha  occ. eigenvalues --   -0.29865  -0.25056
 Alpha virt. eigenvalues --   -0.00835   0.04745   0.06285   0.06459   0.09616
 Alpha virt. eigenvalues --    0.11762   0.12405   0.17404   0.17916   0.18159
 Alpha virt. eigenvalues --    0.20713   0.22004   0.22872   0.24676   0.26202
 Alpha virt. eigenvalues --    0.30857   0.32090   0.38378   0.40059   0.45295
 Alpha virt. eigenvalues --    0.50686   0.52254   0.59429   0.62568   0.62680
 Alpha virt. eigenvalues --    0.63005   0.63349   0.65974   0.67004   0.68656
 Alpha virt. eigenvalues --    0.70821   0.71841   0.72231   0.74228   0.75910
 Alpha virt. eigenvalues --    0.78845   0.82161   0.82472   0.90085   0.92312
 Alpha virt. eigenvalues --    0.96498   0.98160   1.01419   1.07175   1.22889
 Alpha virt. eigenvalues --    1.23685   1.28034   1.30211   1.34085   1.42913
 Alpha virt. eigenvalues --    1.46983   1.55760   1.66776   1.67109   1.71239
 Alpha virt. eigenvalues --    1.76379   1.83045   1.96606   1.97220   1.98568
 Alpha virt. eigenvalues --    1.99096   2.05664   2.10647   2.16440   2.29111
 Alpha virt. eigenvalues --    2.31760   2.43233   2.51857   2.57382   2.59942
 Alpha virt. eigenvalues --    2.62348   2.73903   2.76122   2.86506   2.87731
 Alpha virt. eigenvalues --    2.92659   2.96029   2.99538   3.17750   3.35619
 Alpha virt. eigenvalues --    3.37513   3.50125
          Condensed to atoms (all electrons):
               1          2          3          4          5          6
     1  K   18.086119   0.082400  -0.001858   0.028146   0.051275  -0.025089
     2  N    0.082400   6.671485   0.441675  -0.092757  -0.114564   0.451155
     3  C   -0.001858   0.441675   5.101236   0.440810  -0.094531  -0.156955
     4  C    0.028146  -0.092757   0.440810   5.023793   0.476019  -0.162488
     5  N    0.051275  -0.114564  -0.094531   0.476019   6.605856   0.467607
     6  C   -0.025089   0.451155  -0.156955  -0.162488   0.467607   4.992606
     7  H   -0.009991  -0.050623   0.427510  -0.070692   0.005670   0.013600
     8  H   -0.006551   0.005702  -0.065151   0.423479  -0.045526   0.012256
     9  H   -0.012028  -0.060156   0.011230   0.008168  -0.054120   0.426059
               7          8          9
     1  K   -0.009991  -0.006551  -0.012028
     2  N   -0.050623   0.005702  -0.060156
     3  C    0.427510  -0.065151   0.011230
     4  C   -0.070692   0.423479   0.008168
     5  N    0.005670  -0.045526  -0.054120
     6  C    0.013600   0.012256   0.426059
     7  H    0.676220  -0.000538  -0.000170
     8  H   -0.000538   0.672234  -0.000222
     9  H   -0.000170  -0.000222   0.672948
 Mulliken charges:
               1
     1  K    0.807578
     2  N   -0.334319
     3  C   -0.103966
     4  C   -0.074477
     5  N   -0.297686
     6  C   -0.018751
     7  H    0.009014
     8  H    0.004316
     9  H    0.008292
 Sum of Mulliken charges =  -0.00000
 Mulliken charges with hydrogens summed into heavy atoms:
               1
     1  K    0.807578
     2  N   -0.334319
     3  C   -0.094952
     4  C   -0.070161
     5  N   -0.297686
     6  C   -0.010459
 Electronic spatial extent (au):  <R**2>=            638.3647
 Charge=             -0.0000 electrons
 Dipole moment (field-independent basis, Debye):
    X=            -11.8956    Y=              1.6534    Z=             -1.2853  Tot=             12.0785
 Quadrupole moment (field-independent basis, Debye-Ang):
   XX=            -30.8719   YY=            -39.5516   ZZ=            -48.9773
   XY=              1.6885   XZ=              3.0864   YZ=             -0.5605
 Traceless Quadrupole moment (field-independent basis, Debye-Ang):
   XX=              8.9284   YY=              0.2487   ZZ=             -9.1770
   XY=              1.6885   XZ=              3.0864   YZ=             -0.5605
 Octapole moment (field-independent basis, Debye-Ang**2):
  XXX=            -79.0535  YYY=             -0.9638  ZZZ=             -7.5883  XYY=            -12.7549
  XXY=              2.4636  XXZ=             -0.6065  XZZ=            -20.3123  YZZ=              7.2516
  YYZ=              0.2372  XYZ=             -3.2444
 Hexadecapole moment (field-independent basis, Debye-Ang**3):
 XXXX=           -378.6642 YYYY=           -179.4374 ZZZZ=           -197.3625 XXXY=              0.7242
 XXXZ=             16.1848 YYYX=             -0.8604 YYYZ=             -0.9058 ZZZX=              8.4266
 ZZZY=              0.1704 XXYY=           -102.9458 XXZZ=           -105.9111 YYZZ=            -60.6334
 XXYZ=             -5.8213 YYXZ=              2.1385 ZZXY=              6.6948
 N-N= 2.698004712137D+02 E-N=-2.488418317472D+03  KE= 8.222407163171D+02


 WHEN A MATHEMATICIAN ENGAGED IN INVESTIGATING
 PHYSICAL ACTIONS AND RESULTS HAS ARRIVED AT HIS
 CONCLUSIONS, MAY THEY NOT BE EXPRESSED IN COMMON
 LANGUAGE AS FULLY, CLEARLY, AND DEFINITELY AS IN
 MATHEMATICAL FORMULAE?
           - LETTER FROM M. FARADAY TO J.C. MAXWELL, 1857.
 Error termination request processed by link 9999.
 Error termination via Lnk1e in /home/pub/g16/l9999.exe at Sun Apr  9 15:06:54 2023.
 Job cpu time:       0 days  0 hours 53 minutes  0.5 seconds.
 Elapsed time:       0 days  0 hours  1 minutes 11.0 seconds.
 File lengths (MBytes):  RWF=     30 Int=      0 D2E=      0 Chk=      3 Scr=      1
