 Entering Gaussian System, Link 0=g16
 Initial command:
 /home/pub/g16/l1.exe "/home/zz1/gauss/SCRDIR/Gau-3429124.inp" -scrdir="/home/zz1/gauss/SCRDIR/"
 Entering Link 1 = /home/pub/g16/l1.exe PID=   3429126.
  
 Copyright (c) 1988,1990,1992,1993,1995,1998,2003,2009,2016,
            Gaussian, Inc.  All Rights Reserved.
  
 This is part of the Gaussian(R) 16 program.  It is based on
 the Gaussian(R) 09 system (copyright 2009, Gaussian, Inc.),
 the Gaussian(R) 03 system (copyright 2003, Gaussian, Inc.),
 the Gaussian(R) 98 system (copyright 1998, Gaussian, Inc.),
 the Gaussian(R) 94 system (copyright 1995, Gaussian, Inc.),
 the Gaussian 92(TM) system (copyright 1992, Gaussian, Inc.),
 the Gaussian 90(TM) system (copyright 1990, Gaussian, Inc.),
 the Gaussian 88(TM) system (copyright 1988, Gaussian, Inc.),
 the Gaussian 86(TM) system (copyright 1986, Carnegie Mellon
 University), and the Gaussian 82(TM) system (copyright 1983,
 Carnegie Mellon University). Gaussian is a federally registered
 trademark of Gaussian, Inc.
  
 This software contains proprietary and confidential information,
 including trade secrets, belonging to Gaussian, Inc.
  
 This software is provided under written license and may be
 used, copied, transmitted, or stored only in accord with that
 written license.
  
 The following legend is applicable only to US Government
 contracts under FAR:
  
                    RESTRICTED RIGHTS LEGEND
  
 Use, reproduction and disclosure by the US Government is
 subject to restrictions as set forth in subparagraphs (a)
 and (c) of the Commercial Computer Software - Restricted
 Rights clause in FAR 52.227-19.
  
 Gaussian, Inc.
 340 Quinnipiac St., Bldg. 40, Wallingford CT 06492
  
  
 ---------------------------------------------------------------
 Warning -- This program may not be used in any manner that
 competes with the business of Gaussian, Inc. or will provide
 assistance to any competitor of Gaussian, Inc.  The licensee
 of this program is prohibited from giving any competitor of
 Gaussian, Inc. access to this program.  By using this program,
 the user acknowledges that Gaussian, Inc. is engaged in the
 business of creating and licensing software in the field of
 computational chemistry and represents and warrants to the
 licensee that it is not a competitor of Gaussian, Inc. and that
 it will not use this program in any manner prohibited above.
 ---------------------------------------------------------------
  

 Cite this work as:
 Gaussian 16, Revision A.03,
 M. J. Frisch, G. W. Trucks, H. B. Schlegel, G. E. Scuseria, 
 M. A. Robb, J. R. Cheeseman, G. Scalmani, V. Barone, 
 G. A. Petersson, H. Nakatsuji, X. Li, M. Caricato, A. V. Marenich, 
 J. Bloino, B. G. Janesko, R. Gomperts, B. Mennucci, H. P. Hratchian, 
 J. V. Ortiz, A. F. Izmaylov, J. L. Sonnenberg, D. Williams-Young, 
 F. Ding, F. Lipparini, F. Egidi, J. Goings, B. Peng, A. Petrone, 
 T. Henderson, D. Ranasinghe, V. G. Zakrzewski, J. Gao, N. Rega, 
 G. Zheng, W. Liang, M. Hada, M. Ehara, K. Toyota, R. Fukuda, 
 J. Hasegawa, M. Ishida, T. Nakajima, Y. Honda, O. Kitao, H. Nakai, 
 T. Vreven, K. Throssell, J. A. Montgomery, Jr., J. E. Peralta, 
 F. Ogliaro, M. J. Bearpark, J. J. Heyd, E. N. Brothers, K. N. Kudin, 
 V. N. Staroverov, T. A. Keith, R. Kobayashi, J. Normand, 
 K. Raghavachari, A. P. Rendell, J. C. Burant, S. S. Iyengar, 
 J. Tomasi, M. Cossi, J. M. Millam, M. Klene, C. Adamo, R. Cammi, 
 J. W. Ochterski, R. L. Martin, K. Morokuma, O. Farkas, 
 J. B. Foresman, and D. J. Fox, Gaussian, Inc., Wallingford CT, 2016.
 
 ******************************************
 Gaussian 16:  ES64L-G16RevA.03 25-Dec-2016
                23-Apr-2023 
 ******************************************
 %chk=/home/zz1/proj/gauss/new/chk/Li-JUHJON-2/111.chk
 %CPU=0-48
 SetSPE:  set environment variable "MP_BIND" = "yes"
 SetSPE:  set environment variable "MP_BLIST" = "0,1,2,3,4,5,6,7,8,9,10,11,12,13,14,15,16,17,18,19,20,21,22,23,24,25,26,27,28,29,30,31,32,33,34,35,36,37,38,39,40,41,42,43,44,45,46,47,48"
 Will use up to   49 processors via shared memory.
 ----------------------------------------------------
 # M062X/Def2SVP opt(MaxCyc=10)/freq SCRF pop(Always)
 ----------------------------------------------------
 1/6=10,18=20,19=15,26=3,38=1/1,3;
 2/9=110,12=2,17=6,18=5,40=1/2;
 3/5=43,7=101,11=2,25=1,30=1,70=2201,71=1,74=-55/1,2,3;
 4//1;
 5/5=2,38=5/2;
 6/7=2,8=2,9=2,10=2,28=1/1;
 7//1,2,3,16;
 1/6=10,18=20,19=15,26=3/3(2);
 2/9=110/2;
 99//99;
 2/9=110/2;
 3/5=43,7=101,11=2,25=1,30=1,70=2205,71=1,74=-55/1,2,3;
 4/5=5,16=3,69=1/1;
 5/5=2,38=5/2;
 6/7=2,8=2,9=2,10=2,28=1/1;
 7//1,2,3,16;
 1/6=10,18=20,19=15,26=3/3(-6);
 2/9=110/2;
 6/7=2,8=2,9=2,10=2,19=2,28=1/1;
 99/9=1/99;
 -----------
 Li-JUHJON-2
 -----------
 Symbolic Z-matrix:
 Charge =  0 Multiplicity = 2
 Li                    0.1321    4.28276   5.78001 
 O                    -0.55875   5.98841   6.48582 
 P                    -0.85834   7.42341   5.79075 
 O                     0.11415   8.67563   6.17667 
 F                    -2.15924   7.87402   5.63598 
 F                    -0.56656   7.31338   4.23721 
 H                     1.20124   8.48312   6.07976 
 
 Add virtual bond connecting atoms O2         and Li1        Dist= 3.72D+00.

 GradGradGradGradGradGradGradGradGradGradGradGradGradGradGradGradGradGrad
 Berny optimization.
 Initialization pass.
                           ----------------------------
                           !    Initial Parameters    !
                           ! (Angstroms and Degrees)  !
 --------------------------                            --------------------------
 ! Name  Definition              Value          Derivative Info.                !
 --------------------------------------------------------------------------------
 ! R1    R(1,2)                  1.971          estimate D2E/DX2                !
 ! R2    R(2,3)                  1.6224         estimate D2E/DX2                !
 ! R3    R(3,4)                  1.6318         estimate D2E/DX2                !
 ! R4    R(3,5)                  1.3854         estimate D2E/DX2                !
 ! R5    R(3,6)                  1.5845         estimate D2E/DX2                !
 ! R6    R(4,7)                  1.1082         estimate D2E/DX2                !
 ! A1    A(1,2,3)              132.59           estimate D2E/DX2                !
 ! A2    A(2,3,4)              117.8648         estimate D2E/DX2                !
 ! A3    A(2,3,5)              120.5939         estimate D2E/DX2                !
 ! A4    A(2,3,6)              108.9428         estimate D2E/DX2                !
 ! A5    A(4,3,5)              109.66           estimate D2E/DX2                !
 ! A6    A(4,3,6)              100.1032         estimate D2E/DX2                !
 ! A7    A(5,3,6)               94.9316         estimate D2E/DX2                !
 ! A8    A(3,4,7)              115.5061         estimate D2E/DX2                !
 ! D1    D(1,2,3,4)           -110.0922         estimate D2E/DX2                !
 ! D2    D(1,2,3,5)            110.9092         estimate D2E/DX2                !
 ! D3    D(1,2,3,6)              2.9396         estimate D2E/DX2                !
 ! D4    D(2,3,4,7)             51.3276         estimate D2E/DX2                !
 ! D5    D(5,3,4,7)           -165.5214         estimate D2E/DX2                !
 ! D6    D(6,3,4,7)            -66.5243         estimate D2E/DX2                !
 --------------------------------------------------------------------------------
 Trust Radius=3.00D-01 FncErr=1.00D-07 GrdErr=1.00D-06 EigMax=2.50D+02 EigMin=1.00D-04
 Number of steps in this run=     10 maximum allowed number of steps=    100.
 GradGradGradGradGradGradGradGradGradGradGradGradGradGradGradGradGradGrad

                          Input orientation:                          
 ---------------------------------------------------------------------
 Center     Atomic      Atomic             Coordinates (Angstroms)
 Number     Number       Type             X           Y           Z
 ---------------------------------------------------------------------
      1          3           0        0.132100    4.282760    5.780010
      2          8           0       -0.558750    5.988410    6.485820
      3         15           0       -0.858340    7.423410    5.790750
      4          8           0        0.114150    8.675630    6.176670
      5          9           0       -2.159240    7.874020    5.635980
      6          9           0       -0.566560    7.313380    4.237210
      7          1           0        1.201240    8.483120    6.079760
 ---------------------------------------------------------------------
                    Distance matrix (angstroms):
                    1          2          3          4          5
     1  Li   0.000000
     2  O    1.970960   0.000000
     3  P    3.293140   1.622375   0.000000
     4  O    4.410779   2.787386   1.631786   0.000000
     5  F    4.262409   2.615210   1.385404   2.470471   0.000000
     6  F    3.471745   2.609953   1.584528   2.465887   2.192602
     7  H    4.344644   3.079940   2.334177   1.108249   3.443947
                    6          7
     6  F    0.000000
     7  H    2.808629   0.000000
 Stoichiometry    F2HLiO2P(2)
 Framework group  C1[X(F2HLiO2P)]
 Deg. of freedom    15
 Full point group                 C1      NOp   1
 Largest Abelian subgroup         C1      NOp   1
 Largest concise Abelian subgroup C1      NOp   1
                         Standard orientation:                         
 ---------------------------------------------------------------------
 Center     Atomic      Atomic             Coordinates (Angstroms)
 Number     Number       Type             X           Y           Z
 ---------------------------------------------------------------------
      1          3           0       -3.115659    0.134173    0.362384
      2          8           0       -1.405427    0.251990   -0.610194
      3         15           0        0.131745   -0.013291   -0.164291
      4          8           0        1.125086    1.275964   -0.046719
      5          9           0        0.833529   -1.098393   -0.663687
      6          9           0        0.151901   -0.517603    1.337705
      7          1           0        0.744656    2.117175    0.566350
 ---------------------------------------------------------------------
 Rotational constants (GHZ):           4.6000057           2.7314299           2.5997154
 Standard basis: def2SVP (5D, 7F)
 There are    93 symmetry adapted cartesian basis functions of A   symmetry.
 There are    88 symmetry adapted basis functions of A   symmetry.
    88 basis functions,   160 primitive gaussians,    93 cartesian basis functions
    27 alpha electrons       26 beta electrons
       nuclear repulsion energy       302.5075778589 Hartrees.
 NAtoms=    7 NActive=    7 NUniq=    7 SFac= 1.00D+00 NAtFMM=   60 NAOKFM=F Big=F
 Integral buffers will be    131072 words long.
 Raffenetti 2 integral format.
 Two-electron integral symmetry is turned on.
 ------------------------------------------------------------------------------
 Polarizable Continuum Model (PCM)
 =================================
 Model                : PCM.
 Atomic radii         : UFF (Universal Force Field).
 Polarization charges : Total charges.
 Charge compensation  : None.
 Solution method      : On-the-fly selection.
 Cavity type          : Scaled VdW (van der Waals Surface) (Alpha=1.100).
 Cavity algorithm     : GePol (No added spheres)
                        Default sphere list used, NSphG=    7.
                        Lebedev-Laikov grids with approx.  5.0 points / Ang**2.
                        Smoothing algorithm: York/Karplus (Gamma=1.0000).
                        Polarization charges: spherical gaussians, with
                                              point-specific exponents (IZeta= 3).
                        Self-potential: point-specific (ISelfS= 7).
                        Self-field    : sphere-specific E.n sum rule (ISelfD= 2).
 1st derivatives      : Analytical E(r).r(x)/FMM algorithm (CHGder, D1EAlg=3).
                        Cavity 1st derivative terms included.
 Solvent              : Water, Eps=  78.355300 Eps(inf)=   1.777849
 ------------------------------------------------------------------------------
 Spheres list:
 ISph  on   Nord     Re0    Alpha      Xe            Ye            Ze
    1  Li      1    1.2255  1.100     -3.115659      0.134173      0.362384
    2   O      2    1.7500  1.100     -1.405427      0.251990     -0.610194
    3   P      3    2.0735  1.100      0.131745     -0.013291     -0.164291
    4   O      4    1.7500  1.100      1.125086      1.275964     -0.046719
    5   F      5    1.6820  1.100      0.833529     -1.098393     -0.663687
    6   F      6    1.6820  1.100      0.151901     -0.517603      1.337705
    7   H      7    1.4430  1.100      0.744656      2.117175      0.566350
 ------------------------------------------------------------------------------
 One-electron integrals computed using PRISM.
 PrsmSu:  requested number of processors reduced to:  30 ShMem   1 Linda.
   1 Symmetry operations used in ECPInt.
 ECPInt:  NShTT=     820 NPrTT=    3410 LenC2=     815 LenP2D=    2673.
 LDataN:  DoStor=T MaxTD1= 4 Len=   56
 NBasis=    88 RedAO= T EigKep=  2.06D-02  NBF=    88
 NBsUse=    88 1.00D-06 EigRej= -1.00D+00 NBFU=    88
 ExpMin= 2.10D-02 ExpMax= 8.00D+03 ExpMxC= 1.20D+03 IAcc=3 IRadAn=         5 AccDes= 0.00D+00
 Harris functional with IExCor= 1009 and IRadAn=       5 diagonalized for initial guess.
 HarFok:  IExCor= 1009 AccDes= 0.00D+00 IRadAn=         5 IDoV= 1 UseB2=F ITyADJ=14
 ICtDFT=  3500011 ScaDFX=  1.000000  1.000000  1.000000  1.000000
 FoFCou: FMM=F IPFlag=           0 FMFlag=      100000 FMFlg1=           0
         NFxFlg=           0 DoJE=T BraDBF=F KetDBF=T FulRan=T
         wScrn=  0.000000 ICntrl=       500 IOpCl=  0 I1Cent=   200000004 NGrid=           0
         NMat0=    1 NMatS0=      1 NMatT0=    0 NMatD0=    1 NMtDS0=    0 NMtDT0=    0
 Petite list used in FoFCou.
 Initial guess <Sx>= 0.0000 <Sy>= 0.0000 <Sz>= 0.5000 <S**2>= 0.7500 S= 0.5000
 Keep R1 and R2 ints in memory in canonical form, NReq=60312716.
 Requested convergence on RMS density matrix=1.00D-08 within 128 cycles.
 Requested convergence on MAX density matrix=1.00D-06.
 Requested convergence on             energy=1.00D-06.
 No special actions if energy rises.
 CoulSu:  requested number of processors reduced to:  42 ShMem   1 Linda.
 Inv3:  Mode=1 IEnd=     2741808.
 Iteration    1 A*A^-1 deviation from unit magnitude is 2.55D-15 for    242.
 Iteration    1 A*A^-1 deviation from orthogonality  is 1.16D-15 for    931    251.
 Iteration    1 A^-1*A deviation from unit magnitude is 2.89D-15 for    203.
 Iteration    1 A^-1*A deviation from orthogonality  is 1.52D-15 for    136    120.
 CoulSu:  requested number of processors reduced to:  42 ShMem   1 Linda.
 CoulSu:  requested number of processors reduced to:  42 ShMem   1 Linda.
 Rare condition: small coef for last iteration:  0.000D+00
 Rare condition: small coef for last iteration:  0.000D+00
 CoulSu:  requested number of processors reduced to:  43 ShMem   1 Linda.
 CoulSu:  requested number of processors reduced to:  40 ShMem   1 Linda.
 Error on total polarization charges =  0.04333
 SCF Done:  E(UM062X) =  -699.136906320     A.U. after   26 cycles
            NFock= 26  Conv=0.33D-08     -V/T= 2.0041
 <Sx>= 0.0000 <Sy>= 0.0000 <Sz>= 0.5000 <S**2>= 0.7524 S= 0.5012
 <L.S>=  0.00000000000    
 Annihilation of the first spin contaminant:
 S**2 before annihilation     0.7524,   after     0.7500

 **********************************************************************

            Population analysis using the SCF density.

 **********************************************************************

 Orbital symmetries:
 Alpha Orbitals:
       Occupied  (A) (A) (A) (A) (A) (A) (A) (A) (A) (A) (A) (A)
                 (A) (A) (A) (A) (A) (A) (A) (A) (A) (A) (A) (A)
                 (A) (A) (A)
       Virtual   (A) (A) (A) (A) (A) (A) (A) (A) (A) (A) (A) (A)
                 (A) (A) (A) (A) (A) (A) (A) (A) (A) (A) (A) (A)
                 (A) (A) (A) (A) (A) (A) (A) (A) (A) (A) (A) (A)
                 (A) (A) (A) (A) (A) (A) (A) (A) (A) (A) (A) (A)
                 (A) (A) (A) (A) (A) (A) (A) (A) (A) (A) (A) (A)
                 (A)
 Beta  Orbitals:
       Occupied  (A) (A) (A) (A) (A) (A) (A) (A) (A) (A) (A) (A)
                 (A) (A) (A) (A) (A) (A) (A) (A) (A) (A) (A) (A)
                 (A) (A)
       Virtual   (A) (A) (A) (A) (A) (A) (A) (A) (A) (A) (A) (A)
                 (A) (A) (A) (A) (A) (A) (A) (A) (A) (A) (A) (A)
                 (A) (A) (A) (A) (A) (A) (A) (A) (A) (A) (A) (A)
                 (A) (A) (A) (A) (A) (A) (A) (A) (A) (A) (A) (A)
                 (A) (A) (A) (A) (A) (A) (A) (A) (A) (A) (A) (A)
                 (A) (A)
 The electronic state is 2-A.
 Alpha  occ. eigenvalues --  -78.22561 -25.32228 -25.25625 -19.63599 -19.60770
 Alpha  occ. eigenvalues --   -7.02018  -5.14275  -5.13946  -5.13703  -2.10666
 Alpha  occ. eigenvalues --   -1.47844  -1.33412  -1.10596  -1.03704  -0.76901
 Alpha  occ. eigenvalues --   -0.68147  -0.66889  -0.63451  -0.56661  -0.55081
 Alpha  occ. eigenvalues --   -0.53263  -0.49673  -0.44712  -0.41272  -0.37806
 Alpha  occ. eigenvalues --   -0.36782  -0.09444
 Alpha virt. eigenvalues --    0.02131   0.08876   0.11857   0.14376   0.15118
 Alpha virt. eigenvalues --    0.15183   0.20067   0.23012   0.27310   0.34756
 Alpha virt. eigenvalues --    0.53687   0.54691   0.56794   0.61681   0.63154
 Alpha virt. eigenvalues --    0.64311   0.65920   0.66990   0.70199   0.88972
 Alpha virt. eigenvalues --    0.92054   0.97437   1.02869   1.08650   1.09809
 Alpha virt. eigenvalues --    1.13890   1.18126   1.21665   1.24177   1.30710
 Alpha virt. eigenvalues --    1.32874   1.33995   1.37336   1.42902   1.51860
 Alpha virt. eigenvalues --    1.52546   1.60057   1.64379   1.80770   1.88508
 Alpha virt. eigenvalues --    1.98812   2.71895   2.73959   2.74375   2.80192
 Alpha virt. eigenvalues --    2.82059   2.88149   2.89581   3.03632   3.03770
 Alpha virt. eigenvalues --    3.10406   3.12651   3.12895   3.16514   3.24040
 Alpha virt. eigenvalues --    3.25969   3.33417   3.38278   3.54726   3.64134
 Alpha virt. eigenvalues --    3.85244
  Beta  occ. eigenvalues --  -78.22436 -25.32043 -25.25590 -19.62960 -19.60582
  Beta  occ. eigenvalues --   -7.01891  -5.14220  -5.13815  -5.13654  -2.10633
  Beta  occ. eigenvalues --   -1.47307  -1.33298  -1.08935  -1.02939  -0.76420
  Beta  occ. eigenvalues --   -0.67589  -0.66516  -0.63226  -0.55927  -0.54765
  Beta  occ. eigenvalues --   -0.53196  -0.48978  -0.43904  -0.40761  -0.37581
  Beta  occ. eigenvalues --   -0.36216
  Beta virt. eigenvalues --    0.01089   0.05205   0.09419   0.10117   0.11608
  Beta virt. eigenvalues --    0.13616   0.15893   0.20407   0.21306   0.26996
  Beta virt. eigenvalues --    0.34514   0.54356   0.54454   0.56387   0.61610
  Beta virt. eigenvalues --    0.63407   0.63855   0.64530   0.65583   0.70906
  Beta virt. eigenvalues --    0.89427   0.92709   0.97776   1.03369   1.08864
  Beta virt. eigenvalues --    1.10013   1.13974   1.18295   1.21748   1.24484
  Beta virt. eigenvalues --    1.30971   1.32804   1.33893   1.37862   1.42985
  Beta virt. eigenvalues --    1.52177   1.53788   1.61096   1.64159   1.81246
  Beta virt. eigenvalues --    1.87888   2.02338   2.72051   2.74068   2.74455
  Beta virt. eigenvalues --    2.80320   2.82418   2.88560   2.89914   3.03700
  Beta virt. eigenvalues --    3.03894   3.10494   3.12666   3.12954   3.16628
  Beta virt. eigenvalues --    3.24250   3.26021   3.33644   3.38457   3.55986
  Beta virt. eigenvalues --    3.64193   3.85307
          Condensed to atoms (all electrons):
               1          2          3          4          5          6
     1  Li   2.168816   0.071268   0.057274  -0.036604  -0.009468  -0.000629
     2  O    0.071268   8.298905   0.382266  -0.008400  -0.008170  -0.018793
     3  P    0.057274   0.382266  12.584687   0.176234   0.268829   0.271874
     4  O   -0.036604  -0.008400   0.176234   8.608905  -0.008694  -0.022507
     5  F   -0.009468  -0.008170   0.268829  -0.008694   8.937631  -0.035002
     6  F   -0.000629  -0.018793   0.271874  -0.022507  -0.035002   9.171645
     7  H    0.067315  -0.018162   0.145377  -0.274716  -0.005551  -0.006998
               7
     1  Li   0.067315
     2  O   -0.018162
     3  P    0.145377
     4  O   -0.274716
     5  F   -0.005551
     6  F   -0.006998
     7  H    1.255920
          Atomic-Atomic Spin Densities.
               1          2          3          4          5          6
     1  Li   0.131408  -0.034074   0.067047  -0.037837  -0.010780  -0.006267
     2  O   -0.034074   0.148754  -0.094823   0.015601   0.006579   0.002022
     3  P    0.067047  -0.094823   0.522710  -0.234380  -0.125308  -0.013616
     4  O   -0.037837   0.015601  -0.234380   0.776581   0.008666   0.007200
     5  F   -0.010780   0.006579  -0.125308   0.008666   0.123129   0.002767
     6  F   -0.006267   0.002022  -0.013616   0.007200   0.002767   0.017535
     7  H    0.067414  -0.018512   0.158545  -0.560013  -0.006633  -0.008571
               7
     1  Li   0.067414
     2  O   -0.018512
     3  P    0.158545
     4  O   -0.560013
     5  F   -0.006633
     6  F   -0.008571
     7  H    0.909827
 Mulliken charges and spin densities:
               1          2
     1  Li   0.682027   0.176911
     2  O   -0.698914   0.025547
     3  P    1.113458   0.280175
     4  O   -0.434219  -0.024182
     5  F   -0.139576  -0.001579
     6  F   -0.359590   0.001070
     7  H   -0.163186   0.542058
 Sum of Mulliken charges =  -0.00000   1.00000
 Mulliken charges and spin densities with hydrogens summed into heavy atoms:
               1          2
     1  Li   0.682027   0.176911
     2  O   -0.698914   0.025547
     3  P    1.113458   0.280175
     4  O   -0.597404   0.517876
     5  F   -0.139576  -0.001579
     6  F   -0.359590   0.001070
 Electronic spatial extent (au):  <R**2>=            491.2653
 Charge=             -0.0000 electrons
 Dipole moment (field-independent basis, Debye):
    X=            -10.2445    Y=             -3.9500    Z=              1.4537  Tot=             11.0754
 Quadrupole moment (field-independent basis, Debye-Ang):
   XX=             -8.2214   YY=            -45.4741   ZZ=            -41.0053
   XY=             -3.2689   XZ=             -7.6777   YZ=              0.4575
 Traceless Quadrupole moment (field-independent basis, Debye-Ang):
   XX=             23.3455   YY=            -13.9072   ZZ=             -9.4383
   XY=             -3.2689   XZ=             -7.6777   YZ=              0.4575
 Octapole moment (field-independent basis, Debye-Ang**2):
  XXX=           -108.7566  YYY=            -31.9400  ZZZ=             -2.2967  XYY=             -1.3083
  XXY=             -8.0620  XXZ=             19.9519  XZZ=              3.6403  YZZ=             -6.4314
  YYZ=             -1.8892  XYZ=             -1.5077
 Hexadecapole moment (field-independent basis, Debye-Ang**3):
 XXXX=             24.2560 YYYY=           -243.9690 ZZZZ=           -151.7752 XXXY=            -23.8054
 XXXZ=            -55.6537 YYYX=            -14.0256 YYYZ=            -11.0261 ZZZX=             -4.6468
 ZZZY=             -4.1942 XXYY=           -103.8229 XXZZ=            -83.1025 YYZZ=            -64.5703
 XXYZ=              0.5546 YYXZ=             -1.3111 ZZXY=             -2.5636
 N-N= 3.025075778589D+02 E-N=-2.266760004057D+03  KE= 6.962778533383D+02
                          Isotropic Fermi Contact Couplings
        Atom                 a.u.       MegaHertz       Gauss      10(-4) cm-1
     1  Li(7)              0.01016      17.65553       6.29993       5.88925
     2  O(17)              0.23897    -144.86547     -51.69160     -48.32192
     3  P(31)              0.45680     827.31062     295.20500     275.96112
     4  O(17)              1.04929    -636.07426    -226.96711    -212.17153
     5  F(19)              0.24021    1010.65793     360.62788     337.11920
     6  F(19)              0.06192     260.51572      92.95849      86.89869
     7  H(1)               0.04374     195.53207      69.77071      65.22248
 --------------------------------------------------------
       Center         ----  Spin Dipole Couplings  ----
                      3XX-RR        3YY-RR        3ZZ-RR
 --------------------------------------------------------
     1   Atom        0.003177     -0.001673     -0.001504
     2   Atom        0.156667     -0.069526     -0.087141
     3   Atom       -0.080638     -0.042024      0.122663
     4   Atom        0.330470     -0.154877     -0.175594
     5   Atom       -0.098130      0.192424     -0.094294
     6   Atom       -0.012797      0.012476      0.000320
     7   Atom       -0.012186      0.011107      0.001079
 --------------------------------------------------------
                        XY            XZ            YZ
 --------------------------------------------------------
     1   Atom        0.001643     -0.001586      0.000076
     2   Atom        0.058259     -0.006296     -0.009672
     3   Atom        0.063291     -0.106855     -0.131878
     4   Atom       -0.180880     -0.133742     -0.075635
     5   Atom       -0.065829      0.002517     -0.057905
     6   Atom       -0.000467     -0.000996     -0.015856
     7   Atom       -0.001177     -0.001260      0.019851
 --------------------------------------------------------


 ---------------------------------------------------------------------------------
              Anisotropic Spin Dipole Couplings in Principal Axis System
 ---------------------------------------------------------------------------------

       Atom             a.u.   MegaHertz   Gauss  10(-4) cm-1        Axes

              Baa    -0.0026    -0.535    -0.191    -0.178 -0.3679  0.7163 -0.5930
     1 Li(7)  Bbb    -0.0015    -0.312    -0.111    -0.104  0.0311  0.6468  0.7620
              Bcc     0.0041     0.847     0.302     0.282  0.9294  0.2619 -0.2602
 
              Baa    -0.0937     6.778     2.418     2.261 -0.1219  0.6083  0.7843
     2 O(17)  Bbb    -0.0774     5.601     1.998     1.868 -0.2052  0.7576 -0.6196
              Bcc     0.1711   -12.378    -4.417    -4.129  0.9711  0.2365 -0.0325
 
              Baa    -0.1290   -27.886    -9.950    -9.302  0.9086 -0.3712  0.1913
     3 P(31)  Bbb    -0.1144   -24.726    -8.823    -8.248  0.2153  0.8089  0.5471
              Bcc     0.2434    52.611    18.773    17.549 -0.3578 -0.4559  0.8149
 
              Baa    -0.3173    22.958     8.192     7.658  0.3250  0.6719  0.6655
     4 O(17)  Bbb    -0.0920     6.660     2.376     2.221 -0.0645 -0.6863  0.7245
              Bcc     0.4093   -29.618   -10.568    -9.880  0.9435 -0.2784 -0.1797
 
              Baa    -0.1189   -59.711   -21.306   -19.917  0.7876  0.2696  0.5540
     5 F(19)  Bbb    -0.0982   -49.339   -17.605   -16.458 -0.5819  0.0301  0.8127
              Bcc     0.2171   109.050    38.912    36.375 -0.2024  0.9625 -0.1806
 
              Baa    -0.0132    -6.650    -2.373    -2.218  0.9258  0.2105  0.3141
     6 F(19)  Bbb    -0.0101    -5.092    -1.817    -1.699 -0.3781  0.5262  0.7617
              Bcc     0.0234    11.742     4.190     3.917  0.0050  0.8239 -0.5667
 
              Baa    -0.0144    -7.691    -2.744    -2.566  0.1245 -0.6056  0.7860
     7 H(1)   Bbb    -0.0122    -6.524    -2.328    -2.176  0.9912  0.1109 -0.0716
              Bcc     0.0266    14.215     5.072     4.742 -0.0438  0.7880  0.6141
 

 ---------------------------------------------------------------------------------

 PrsmSu:  requested number of processors reduced to:  30 ShMem   1 Linda.
   1 Symmetry operations used in ECPInt.
 ECPInt:  NShTT=     820 NPrTT=    3410 LenC2=     815 LenP2D=    2673.
 LDataN:  DoStor=T MaxTD1= 5 Len=  102
 D1PCM: PCM CHGder 1st derivatives, ID1Alg=3 FixD1E=F DoIter=F DoCFld=F I1PDM=0.
 CoulSu:  requested number of processors reduced to:  48 ShMem   1 Linda.
 CoulSu:  requested number of processors reduced to:  48 ShMem   1 Linda.
 CoulSu:  requested number of processors reduced to:  29 ShMem   1 Linda.
 CoulSu:  requested number of processors reduced to:  30 ShMem   1 Linda.
 Calling FoFJK, ICntrl=      2127 FMM=F ISym2X=0 I1Cent= 0 IOpClX= 1 NMat=1 NMatS=1 NMatT=0.
 ***** Axes restored to original set *****
 -------------------------------------------------------------------
 Center     Atomic                   Forces (Hartrees/Bohr)
 Number     Number              X              Y              Z
 -------------------------------------------------------------------
      1        3          -0.001884224    0.008642911    0.003375469
      2        8          -0.023643727    0.075440090   -0.052225349
      3       15           0.276170646   -0.117922534    0.085892049
      4        8          -0.015307659   -0.024203854   -0.003325034
      5        9          -0.238868912    0.071997419   -0.020117313
      6        9           0.007602018   -0.012703876   -0.011105343
      7        1          -0.004068141   -0.001250156   -0.002494479
 -------------------------------------------------------------------
 Cartesian Forces:  Max     0.276170646 RMS     0.090096641

 GradGradGradGradGradGradGradGradGradGradGradGradGradGradGradGradGradGrad
 Berny optimization.
 FormGI is forming the generalized inverse of G from B-inverse, IUseBI=4.
 Internal  Forces:  Max     0.249954851 RMS     0.061226467
 Search for a local minimum.
 Step number   1 out of a maximum of   10
 All quantities printed in internal units (Hartrees-Bohrs-Radians)
 Mixed Optimization -- RFO/linear search
 Second derivative matrix not updated -- first step.
 The second derivative matrix:
                          R1        R2        R3        R4        R5
           R1           0.09429
           R2           0.00000   0.47124
           R3           0.00000   0.00000   0.45532
           R4           0.00000   0.00000   0.00000   1.31697
           R5           0.00000   0.00000   0.00000   0.00000   0.54330
           R6           0.00000   0.00000   0.00000   0.00000   0.00000
           A1           0.00000   0.00000   0.00000   0.00000   0.00000
           A2           0.00000   0.00000   0.00000   0.00000   0.00000
           A3           0.00000   0.00000   0.00000   0.00000   0.00000
           A4           0.00000   0.00000   0.00000   0.00000   0.00000
           A5           0.00000   0.00000   0.00000   0.00000   0.00000
           A6           0.00000   0.00000   0.00000   0.00000   0.00000
           A7           0.00000   0.00000   0.00000   0.00000   0.00000
           A8           0.00000   0.00000   0.00000   0.00000   0.00000
           D1           0.00000   0.00000   0.00000   0.00000   0.00000
           D2           0.00000   0.00000   0.00000   0.00000   0.00000
           D3           0.00000   0.00000   0.00000   0.00000   0.00000
           D4           0.00000   0.00000   0.00000   0.00000   0.00000
           D5           0.00000   0.00000   0.00000   0.00000   0.00000
           D6           0.00000   0.00000   0.00000   0.00000   0.00000
                          R6        A1        A2        A3        A4
           R6           0.32786
           A1           0.00000   0.25000
           A2           0.00000   0.00000   0.25000
           A3           0.00000   0.00000   0.00000   0.25000
           A4           0.00000   0.00000   0.00000   0.00000   0.25000
           A5           0.00000   0.00000   0.00000   0.00000   0.00000
           A6           0.00000   0.00000   0.00000   0.00000   0.00000
           A7           0.00000   0.00000   0.00000   0.00000   0.00000
           A8           0.00000   0.00000   0.00000   0.00000   0.00000
           D1           0.00000   0.00000   0.00000   0.00000   0.00000
           D2           0.00000   0.00000   0.00000   0.00000   0.00000
           D3           0.00000   0.00000   0.00000   0.00000   0.00000
           D4           0.00000   0.00000   0.00000   0.00000   0.00000
           D5           0.00000   0.00000   0.00000   0.00000   0.00000
           D6           0.00000   0.00000   0.00000   0.00000   0.00000
                          A5        A6        A7        A8        D1
           A5           0.25000
           A6           0.00000   0.25000
           A7           0.00000   0.00000   0.25000
           A8           0.00000   0.00000   0.00000   0.16000
           D1           0.00000   0.00000   0.00000   0.00000   0.03117
           D2           0.00000   0.00000   0.00000   0.00000   0.00000
           D3           0.00000   0.00000   0.00000   0.00000   0.00000
           D4           0.00000   0.00000   0.00000   0.00000   0.00000
           D5           0.00000   0.00000   0.00000   0.00000   0.00000
           D6           0.00000   0.00000   0.00000   0.00000   0.00000
                          D2        D3        D4        D5        D6
           D2           0.03117
           D3           0.00000   0.03117
           D4           0.00000   0.00000   0.02992
           D5           0.00000   0.00000   0.00000   0.02992
           D6           0.00000   0.00000   0.00000   0.00000   0.02992
 ITU=  0
     Eigenvalues ---    0.02992   0.03117   0.09429   0.09727   0.14511
     Eigenvalues ---    0.16000   0.20898   0.23718   0.25000   0.25000
     Eigenvalues ---    0.32786   0.45532   0.47124   0.54330   1.31697
 RFO step:  Lambda=-7.05542467D-02 EMin= 2.99242393D-02
 Linear search not attempted -- first point.
 Iteration  1 RMS(Cart)=  0.08894445 RMS(Int)=  0.00169539
 Iteration  2 RMS(Cart)=  0.00173853 RMS(Int)=  0.00054072
 Iteration  3 RMS(Cart)=  0.00000275 RMS(Int)=  0.00054071
 Iteration  4 RMS(Cart)=  0.00000000 RMS(Int)=  0.00054071
 Variable       Old X    -DE/DX   Delta X   Delta X   Delta X     New X
                                 (Linear)    (Quad)   (Total)
    R1        3.72457  -0.00923   0.00000  -0.05601  -0.05601   3.66856
    R2        3.06584  -0.10010   0.00000  -0.18476  -0.18476   2.88108
    R3        3.08363  -0.03245   0.00000  -0.06171  -0.06171   3.02192
    R4        2.61803   0.24995   0.00000   0.18014   0.18014   2.79818
    R5        2.99432   0.01312   0.00000   0.02137   0.02137   3.01569
    R6        2.09429  -0.00355   0.00000  -0.00892  -0.00892   2.08537
    A1        2.31413  -0.00211   0.00000  -0.00660  -0.00660   2.30754
    A2        2.05713   0.00749   0.00000   0.02225   0.02244   2.07957
    A3        2.10476  -0.01631   0.00000  -0.05373  -0.05412   2.05064
    A4        1.90141  -0.01740   0.00000  -0.06465  -0.06509   1.83633
    A5        1.91393   0.00947   0.00000   0.03468   0.03468   1.94861
    A6        1.74713   0.00758   0.00000   0.02630   0.02634   1.77347
    A7        1.65687   0.01180   0.00000   0.04473   0.04311   1.69998
    A8        2.01596  -0.00567   0.00000  -0.02459  -0.02459   1.99137
    D1       -1.92147   0.00242   0.00000   0.01930   0.01932  -1.90215
    D2        1.93573  -0.00251   0.00000   0.00015   0.00126   1.93699
    D3        0.05131   0.00407   0.00000   0.01967   0.01855   0.06985
    D4        0.89584  -0.00104   0.00000   0.00165   0.00151   0.89735
    D5       -2.88889  -0.00655   0.00000  -0.01494  -0.01525  -2.90414
    D6       -1.16107   0.01150   0.00000   0.05221   0.05266  -1.10841
         Item               Value     Threshold  Converged?
 Maximum Force            0.249955     0.000450     NO 
 RMS     Force            0.061226     0.000300     NO 
 Maximum Displacement     0.209296     0.001800     NO 
 RMS     Displacement     0.089783     0.001200     NO 
 Predicted change in Energy=-3.844860D-02
 GradGradGradGradGradGradGradGradGradGradGradGradGradGradGradGradGradGrad

                          Input orientation:                          
 ---------------------------------------------------------------------
 Center     Atomic      Atomic             Coordinates (Angstroms)
 Number     Number       Type             X           Y           Z
 ---------------------------------------------------------------------
      1          3           0        0.117472    4.393515    5.740333
      2          8           0       -0.566861    6.063952    6.454513
      3         15           0       -0.827359    7.422108    5.812662
      4          8           0        0.123962    8.653376    6.181689
      5          9           0       -2.237582    7.847560    5.661575
      6          9           0       -0.506022    7.221240    4.262473
      7          1           0        1.200989    8.438979    6.072954
 ---------------------------------------------------------------------
                    Distance matrix (angstroms):
                    1          2          3          4          5
     1  Li   0.000000
     2  O    1.941320   0.000000
     3  P    3.173376   1.524605   0.000000
     4  O    4.282670   2.693843   1.599129   0.000000
     5  F    4.181257   2.569303   1.480732   2.548872   0.000000
     6  F    3.250976   2.479527   1.595836   2.476143   2.312588
     7  H    4.201241   2.985236   2.283851   1.103529   3.513230
                    6          7
     6  F    0.000000
     7  H    2.770310   0.000000
 Stoichiometry    F2HLiO2P(2)
 Framework group  C1[X(F2HLiO2P)]
 Deg. of freedom    15
 Full point group                 C1      NOp   1
 Largest Abelian subgroup         C1      NOp   1
 Largest concise Abelian subgroup C1      NOp   1
                         Standard orientation:                         
 ---------------------------------------------------------------------
 Center     Atomic      Atomic             Coordinates (Angstroms)
 Number     Number       Type             X           Y           Z
 ---------------------------------------------------------------------
      1          3           0       -3.010837    0.174318    0.150214
      2          8           0       -1.271339    0.117030   -0.709780
      3         15           0        0.142292   -0.014166   -0.154033
      4          8           0        1.119194    1.250919   -0.203385
      5          9           0        0.868565   -1.275984   -0.424050
      6          9           0       -0.042851   -0.215918    1.418134
      7          1           0        0.683864    2.173058    0.218427
 ---------------------------------------------------------------------
 Rotational constants (GHZ):           4.4709974           2.8662488           2.7049330
 Standard basis: def2SVP (5D, 7F)
 There are    93 symmetry adapted cartesian basis functions of A   symmetry.
 There are    88 symmetry adapted basis functions of A   symmetry.
    88 basis functions,   160 primitive gaussians,    93 cartesian basis functions
    27 alpha electrons       26 beta electrons
       nuclear repulsion energy       303.0160599151 Hartrees.
 NAtoms=    7 NActive=    7 NUniq=    7 SFac= 1.00D+00 NAtFMM=   60 NAOKFM=F Big=F
 Integral buffers will be    131072 words long.
 Raffenetti 2 integral format.
 Two-electron integral symmetry is turned on.
 ------------------------------------------------------------------------------
 Polarizable Continuum Model (PCM)
 =================================
 Model                : PCM.
 Atomic radii         : UFF (Universal Force Field).
 Polarization charges : Total charges.
 Charge compensation  : None.
 Solution method      : On-the-fly selection.
 Cavity type          : Scaled VdW (van der Waals Surface) (Alpha=1.100).
 Cavity algorithm     : GePol (No added spheres)
                        Default sphere list used, NSphG=    7.
                        Lebedev-Laikov grids with approx.  5.0 points / Ang**2.
                        Smoothing algorithm: York/Karplus (Gamma=1.0000).
                        Polarization charges: spherical gaussians, with
                                              point-specific exponents (IZeta= 3).
                        Self-potential: point-specific (ISelfS= 7).
                        Self-field    : sphere-specific E.n sum rule (ISelfD= 2).
 1st derivatives      : Analytical E(r).r(x)/FMM algorithm (CHGder, D1EAlg=3).
                        Cavity 1st derivative terms included.
 Solvent              : Water, Eps=  78.355300 Eps(inf)=   1.777849
 ------------------------------------------------------------------------------
 Spheres list:
 ISph  on   Nord     Re0    Alpha      Xe            Ye            Ze
    1  Li      1    1.2255  1.100     -3.010837      0.174318      0.150214
    2   O      2    1.7500  1.100     -1.271339      0.117030     -0.709780
    3   P      3    2.0735  1.100      0.142292     -0.014166     -0.154033
    4   O      4    1.7500  1.100      1.119194      1.250919     -0.203385
    5   F      5    1.6820  1.100      0.868565     -1.275984     -0.424050
    6   F      6    1.6820  1.100     -0.042851     -0.215918      1.418134
    7   H      7    1.4430  1.100      0.683864      2.173058      0.218427
 ------------------------------------------------------------------------------
 One-electron integrals computed using PRISM.
 PrsmSu:  requested number of processors reduced to:  30 ShMem   1 Linda.
   1 Symmetry operations used in ECPInt.
 ECPInt:  NShTT=     820 NPrTT=    3410 LenC2=     815 LenP2D=    2685.
 LDataN:  DoStor=T MaxTD1= 4 Len=   56
 NBasis=    88 RedAO= T EigKep=  1.76D-02  NBF=    88
 NBsUse=    88 1.00D-06 EigRej= -1.00D+00 NBFU=    88
 Initial guess from the checkpoint file:  "/home/zz1/proj/gauss/new/chk/Li-JUHJON-2/111.chk"
 B after Tr=    -0.000000   -0.000000    0.000000
         Rot=    0.994555    0.096619    0.038876    0.003626 Ang=  11.96 deg.
 Initial guess <Sx>= 0.0000 <Sy>= 0.0000 <Sz>= 0.5000 <S**2>= 0.7523 S= 0.5012
 ExpMin= 2.10D-02 ExpMax= 8.00D+03 ExpMxC= 1.20D+03 IAcc=3 IRadAn=         5 AccDes= 0.00D+00
 Harris functional with IExCor= 1009 and IRadAn=       5 diagonalized for initial guess.
 HarFok:  IExCor= 1009 AccDes= 0.00D+00 IRadAn=         5 IDoV= 1 UseB2=F ITyADJ=14
 ICtDFT=  3500011 ScaDFX=  1.000000  1.000000  1.000000  1.000000
 FoFCou: FMM=F IPFlag=           0 FMFlag=      100000 FMFlg1=           0
         NFxFlg=           0 DoJE=T BraDBF=F KetDBF=T FulRan=T
         wScrn=  0.000000 ICntrl=       500 IOpCl=  0 I1Cent=   200000004 NGrid=           0
         NMat0=    1 NMatS0=      1 NMatT0=    0 NMatD0=    1 NMtDS0=    0 NMtDT0=    0
 Petite list used in FoFCou.
 Keep R1 and R2 ints in memory in canonical form, NReq=60312716.
 Requested convergence on RMS density matrix=1.00D-08 within 128 cycles.
 Requested convergence on MAX density matrix=1.00D-06.
 Requested convergence on             energy=1.00D-06.
 No special actions if energy rises.
 CoulSu:  requested number of processors reduced to:  42 ShMem   1 Linda.
 Inv3:  Mode=1 IEnd=     2782107.
 Iteration    1 A*A^-1 deviation from unit magnitude is 2.78D-15 for    579.
 Iteration    1 A*A^-1 deviation from orthogonality  is 2.11D-15 for    853    629.
 Iteration    1 A^-1*A deviation from unit magnitude is 3.22D-15 for    579.
 Iteration    1 A^-1*A deviation from orthogonality  is 2.00D-15 for    882    229.
 CoulSu:  requested number of processors reduced to:  42 ShMem   1 Linda.
 CoulSu:  requested number of processors reduced to:  42 ShMem   1 Linda.
 CoulSu:  requested number of processors reduced to:  43 ShMem   1 Linda.
 CoulSu:  requested number of processors reduced to:  40 ShMem   1 Linda.
 Error on total polarization charges =  0.03986
 SCF Done:  E(UM062X) =  -699.185492934     A.U. after   17 cycles
            NFock= 17  Conv=0.59D-08     -V/T= 2.0043
 <Sx>= 0.0000 <Sy>= 0.0000 <Sz>= 0.5000 <S**2>= 0.7522 S= 0.5011
 <L.S>=  0.00000000000    
 Annihilation of the first spin contaminant:
 S**2 before annihilation     0.7522,   after     0.7500

 **********************************************************************

            Population analysis using the SCF density.

 **********************************************************************

 Orbital symmetries:
 Alpha Orbitals:
       Occupied  (A) (A) (A) (A) (A) (A) (A) (A) (A) (A) (A) (A)
                 (A) (A) (A) (A) (A) (A) (A) (A) (A) (A) (A) (A)
                 (A) (A) (A)
       Virtual   (A) (A) (A) (A) (A) (A) (A) (A) (A) (A) (A) (A)
                 (A) (A) (A) (A) (A) (A) (A) (A) (A) (A) (A) (A)
                 (A) (A) (A) (A) (A) (A) (A) (A) (A) (A) (A) (A)
                 (A) (A) (A) (A) (A) (A) (A) (A) (A) (A) (A) (A)
                 (A) (A) (A) (A) (A) (A) (A) (A) (A) (A) (A) (A)
                 (A)
 Beta  Orbitals:
       Occupied  (A) (A) (A) (A) (A) (A) (A) (A) (A) (A) (A) (A)
                 (A) (A) (A) (A) (A) (A) (A) (A) (A) (A) (A) (A)
                 (A) (A)
       Virtual   (A) (A) (A) (A) (A) (A) (A) (A) (A) (A) (A) (A)
                 (A) (A) (A) (A) (A) (A) (A) (A) (A) (A) (A) (A)
                 (A) (A) (A) (A) (A) (A) (A) (A) (A) (A) (A) (A)
                 (A) (A) (A) (A) (A) (A) (A) (A) (A) (A) (A) (A)
                 (A) (A) (A) (A) (A) (A) (A) (A) (A) (A) (A) (A)
                 (A) (A)
 The electronic state is 2-A.
 Alpha  occ. eigenvalues --  -78.22273 -25.30085 -25.25398 -19.64140 -19.61058
 Alpha  occ. eigenvalues --   -7.01524  -5.13704  -5.13526  -5.13322  -2.10797
 Alpha  occ. eigenvalues --   -1.41927  -1.32812  -1.12422  -1.07209  -0.74404
 Alpha  occ. eigenvalues --   -0.65160  -0.63853  -0.61387  -0.56598  -0.54883
 Alpha  occ. eigenvalues --   -0.53027  -0.50859  -0.46123  -0.42534  -0.39636
 Alpha  occ. eigenvalues --   -0.38285  -0.09825
 Alpha virt. eigenvalues --    0.02307   0.09669   0.12808   0.14606   0.15502
 Alpha virt. eigenvalues --    0.17234   0.20699   0.22783   0.27610   0.34460
 Alpha virt. eigenvalues --    0.53664   0.55300   0.57320   0.61670   0.63085
 Alpha virt. eigenvalues --    0.63408   0.65905   0.66945   0.71597   0.89731
 Alpha virt. eigenvalues --    0.92511   0.98301   1.02600   1.08665   1.10861
 Alpha virt. eigenvalues --    1.15192   1.18747   1.23394   1.24867   1.28344
 Alpha virt. eigenvalues --    1.33541   1.34759   1.39117   1.42115   1.50686
 Alpha virt. eigenvalues --    1.52824   1.57212   1.65338   1.82294   1.92044
 Alpha virt. eigenvalues --    1.98853   2.70306   2.72710   2.73000   2.81404
 Alpha virt. eigenvalues --    2.83333   2.88451   2.92630   3.07221   3.07974
 Alpha virt. eigenvalues --    3.11012   3.13204   3.14303   3.18541   3.26581
 Alpha virt. eigenvalues --    3.28695   3.33404   3.37970   3.55075   3.62230
 Alpha virt. eigenvalues --    3.76677
  Beta  occ. eigenvalues --  -78.22151 -25.29880 -25.25363 -19.63510 -19.60930
  Beta  occ. eigenvalues --   -7.01408  -5.13628  -5.13438  -5.13249  -2.10770
  Beta  occ. eigenvalues --   -1.41346  -1.32676  -1.10979  -1.06495  -0.73741
  Beta  occ. eigenvalues --   -0.64671  -0.63237  -0.61199  -0.55739  -0.54713
  Beta  occ. eigenvalues --   -0.52930  -0.50366  -0.45493  -0.42065  -0.39466
  Beta  occ. eigenvalues --   -0.37802
  Beta virt. eigenvalues --    0.01324   0.05523   0.09961   0.10565   0.12243
  Beta virt. eigenvalues --    0.14361   0.17583   0.20810   0.22481   0.26609
  Beta virt. eigenvalues --    0.34082   0.54457   0.55361   0.56942   0.61596
  Beta virt. eigenvalues --    0.63599   0.64034   0.64222   0.65176   0.71998
  Beta virt. eigenvalues --    0.90132   0.93103   0.98580   1.03105   1.08805
  Beta virt. eigenvalues --    1.11172   1.15371   1.18832   1.23602   1.25070
  Beta virt. eigenvalues --    1.28606   1.33847   1.34509   1.39316   1.42212
  Beta virt. eigenvalues --    1.51228   1.53871   1.58195   1.65545   1.82835
  Beta virt. eigenvalues --    1.91425   2.02899   2.70403   2.72807   2.73093
  Beta virt. eigenvalues --    2.81482   2.83757   2.88931   2.92871   3.07323
  Beta virt. eigenvalues --    3.08077   3.11108   3.13226   3.14339   3.18790
  Beta virt. eigenvalues --    3.26747   3.28751   3.33599   3.38181   3.56376
  Beta virt. eigenvalues --    3.62261   3.76682
          Condensed to atoms (all electrons):
               1          2          3          4          5          6
     1  Li   2.149971   0.071472   0.044428  -0.037793  -0.009437   0.002336
     2  O    0.071472   8.191552   0.460948  -0.013108  -0.011807  -0.027560
     3  P    0.044428   0.460948  12.455878   0.225447   0.240283   0.274264
     4  O   -0.037793  -0.013108   0.225447   8.591665  -0.008004  -0.021704
     5  F   -0.009437  -0.011807   0.240283  -0.008004   9.054109  -0.023032
     6  F    0.002336  -0.027560   0.274264  -0.021704  -0.023032   9.171468
     7  H    0.074064  -0.017427   0.133424  -0.330422  -0.005664  -0.007727
               7
     1  Li   0.074064
     2  O   -0.017427
     3  P    0.133424
     4  O   -0.330422
     5  F   -0.005664
     6  F   -0.007727
     7  H    1.359392
          Atomic-Atomic Spin Densities.
               1          2          3          4          5          6
     1  Li   0.115942  -0.027566   0.054179  -0.039125  -0.010803  -0.006465
     2  O   -0.027566   0.096730  -0.061511   0.014243   0.005681   0.001645
     3  P    0.054179  -0.061511   0.455919  -0.203627  -0.123008  -0.010955
     4  O   -0.039125   0.014243  -0.203627   0.793897   0.006992   0.006909
     5  F   -0.010803   0.005681  -0.123008   0.006992   0.131396   0.002423
     6  F   -0.006465   0.001645  -0.010955   0.006909   0.002423   0.016876
     7  H    0.074242  -0.017807   0.145252  -0.616166  -0.006603  -0.009324
               7
     1  Li   0.074242
     2  O   -0.017807
     3  P    0.145252
     4  O   -0.616166
     5  F   -0.006603
     6  F   -0.009324
     7  H    1.032023
 Mulliken charges and spin densities:
               1          2
     1  Li   0.704959   0.160406
     2  O   -0.654070   0.011415
     3  P    1.165328   0.256251
     4  O   -0.406082  -0.036877
     5  F   -0.236449   0.006078
     6  F   -0.368045   0.001109
     7  H   -0.205641   0.601618
 Sum of Mulliken charges =  -0.00000   1.00000
 Mulliken charges and spin densities with hydrogens summed into heavy atoms:
               1          2
     1  Li   0.704959   0.160406
     2  O   -0.654070   0.011415
     3  P    1.165328   0.256251
     4  O   -0.611723   0.564741
     5  F   -0.236449   0.006078
     6  F   -0.368045   0.001109
 Electronic spatial extent (au):  <R**2>=            481.4735
 Charge=              0.0000 electrons
 Dipole moment (field-independent basis, Debye):
    X=            -10.7299    Y=             -3.4097    Z=              1.2575  Tot=             11.3286
 Quadrupole moment (field-independent basis, Debye-Ang):
   XX=             -8.2868   YY=            -46.4080   ZZ=            -41.5336
   XY=             -4.1432   XZ=             -4.2219   YZ=              0.3248
 Traceless Quadrupole moment (field-independent basis, Debye-Ang):
   XX=             23.7894   YY=            -14.3319   ZZ=             -9.4575
   XY=             -4.1432   XZ=             -4.2219   YZ=              0.3248
 Octapole moment (field-independent basis, Debye-Ang**2):
  XXX=           -106.6087  YYY=            -33.7562  ZZZ=              1.1134  XYY=             -4.0835
  XXY=             -4.7168  XXZ=             12.5079  XZZ=              4.4655  YZZ=             -6.4924
  YYZ=              1.1001  XYZ=             -0.6119
 Hexadecapole moment (field-independent basis, Debye-Ang**3):
 XXXX=             29.0797 YYYY=           -261.6541 ZZZZ=           -148.8658 XXXY=            -29.1916
 XXXZ=            -25.2329 YYYX=            -14.9126 YYYZ=             -5.6203 ZZZX=             -4.4047
 ZZZY=             -0.5196 XXYY=            -96.7821 XXZZ=            -79.7945 YYZZ=            -63.0518
 XXYZ=              1.0655 YYXZ=             -0.5962 ZZXY=             -2.9577
 N-N= 3.030160599151D+02 E-N=-2.267816467998D+03  KE= 6.961666075282D+02
                          Isotropic Fermi Contact Couplings
        Atom                 a.u.       MegaHertz       Gauss      10(-4) cm-1
     1  Li(7)              0.00789      13.70006       4.88852       4.56985
     2  O(17)              0.17779    -107.77644     -38.45732     -35.95035
     3  P(31)              0.41015     742.81649     265.05540     247.77691
     4  O(17)              1.09261    -662.33295    -236.33687    -220.93049
     5  F(19)              0.23851    1003.49542     358.07212     334.73004
     6  F(19)              0.06399     269.24696      96.07401      89.81112
     7  H(1)               0.05179     231.49953      82.60479      77.21993
 --------------------------------------------------------
       Center         ----  Spin Dipole Couplings  ----
                      3XX-RR        3YY-RR        3ZZ-RR
 --------------------------------------------------------
     1   Atom        0.003051     -0.001132     -0.001919
     2   Atom        0.079934     -0.037075     -0.042859
     3   Atom        0.037760     -0.128493      0.090733
     4   Atom        0.286878     -0.164769     -0.122109
     5   Atom       -0.119769      0.233496     -0.113727
     6   Atom       -0.009232      0.005853      0.003379
     7   Atom       -0.010971      0.016410     -0.005439
 --------------------------------------------------------
                        XY            XZ            YZ
 --------------------------------------------------------
     1   Atom        0.001638     -0.000912      0.000198
     2   Atom        0.047726     -0.019061     -0.016182
     3   Atom        0.027383     -0.173308     -0.029768
     4   Atom       -0.159173     -0.071945     -0.071569
     5   Atom       -0.050266      0.004657     -0.083556
     6   Atom        0.006598     -0.005142     -0.017162
     7   Atom       -0.003934     -0.001632      0.014388
 --------------------------------------------------------


 ---------------------------------------------------------------------------------
              Anisotropic Spin Dipole Couplings in Principal Axis System
 ---------------------------------------------------------------------------------

       Atom             a.u.   MegaHertz   Gauss  10(-4) cm-1        Axes

              Baa    -0.0024    -0.492    -0.176    -0.164  0.2908 -0.5128  0.8077
     1 Li(7)  Bbb    -0.0014    -0.281    -0.100    -0.094 -0.1790  0.8002  0.5725
              Bcc     0.0037     0.773     0.276     0.258  0.9399  0.3110 -0.1409
 
              Baa    -0.0599     4.332     1.546     1.445 -0.2031  0.8129  0.5459
     2 O(17)  Bbb    -0.0409     2.959     1.056     0.987  0.3166 -0.4730  0.8222
              Bcc     0.1008    -7.290    -2.601    -2.432  0.9266  0.3398 -0.1613
 
              Baa    -0.1330   -28.745   -10.257    -9.588 -0.1176  0.9922  0.0409
     3 P(31)  Bbb    -0.1110   -23.994    -8.562    -8.003  0.7525  0.0621  0.6557
              Bcc     0.2440    52.739    18.819    17.592 -0.6480 -0.1079  0.7539
 
              Baa    -0.2710    19.606     6.996     6.540  0.2954  0.7974  0.5262
     4 O(17)  Bbb    -0.0713     5.158     1.840     1.720 -0.0670 -0.5321  0.8440
              Bcc     0.3422   -24.764    -8.836    -8.260  0.9530 -0.2845 -0.1038
 
              Baa    -0.1369   -68.757   -24.534   -22.935  0.5258  0.2545  0.8117
     5 F(19)  Bbb    -0.1223   -61.403   -21.910   -20.482  0.8405 -0.0085 -0.5418
              Bcc     0.2592   130.160    46.444    43.417 -0.1310  0.9670 -0.2183
 
              Baa    -0.0129    -6.483    -2.313    -2.162 -0.3975  0.6915  0.6032
     6 F(19)  Bbb    -0.0110    -5.529    -1.973    -1.844  0.8846  0.1140  0.4522
              Bcc     0.0239    12.012     4.286     4.007  0.2439  0.7133 -0.6571
 
              Baa    -0.0127    -6.749    -2.408    -2.251 -0.2367 -0.4567  0.8576
     7 H(1)   Bbb    -0.0114    -6.091    -2.173    -2.032  0.9641 -0.0010  0.2655
              Bcc     0.0241    12.841     4.582     4.283 -0.1204  0.8896  0.4405
 

 ---------------------------------------------------------------------------------

 PrsmSu:  requested number of processors reduced to:  30 ShMem   1 Linda.
   1 Symmetry operations used in ECPInt.
 ECPInt:  NShTT=     820 NPrTT=    3410 LenC2=     815 LenP2D=    2685.
 LDataN:  DoStor=T MaxTD1= 5 Len=  102
 D1PCM: PCM CHGder 1st derivatives, ID1Alg=3 FixD1E=F DoIter=F DoCFld=F I1PDM=0.
 CoulSu:  requested number of processors reduced to:  48 ShMem   1 Linda.
 CoulSu:  requested number of processors reduced to:  48 ShMem   1 Linda.
 CoulSu:  requested number of processors reduced to:  29 ShMem   1 Linda.
 CoulSu:  requested number of processors reduced to:  30 ShMem   1 Linda.
 Calling FoFJK, ICntrl=      2127 FMM=F ISym2X=0 I1Cent= 0 IOpClX= 1 NMat=1 NMatS=1 NMatT=0.
 ***** Axes restored to original set *****
 -------------------------------------------------------------------
 Center     Atomic                   Forces (Hartrees/Bohr)
 Number     Number              X              Y              Z
 -------------------------------------------------------------------
      1        3          -0.001752895    0.005646272    0.001954002
      2        8          -0.011120350    0.024143111   -0.015173266
      3       15           0.125978356   -0.034404920    0.031851946
      4        8          -0.024791451   -0.015784365   -0.001574252
      5        9          -0.096547628    0.023346043   -0.010828590
      6        9          -0.002750291   -0.000563843   -0.003358533
      7        1           0.010984259   -0.002382299   -0.002871307
 -------------------------------------------------------------------
 Cartesian Forces:  Max     0.125978356 RMS     0.037826709

 GradGradGradGradGradGradGradGradGradGradGradGradGradGradGradGradGradGrad
 Berny optimization.
 Using GEDIIS/GDIIS optimizer.
 FormGI is forming the generalized inverse of G from B-inverse, IUseBI=4.
 Internal  Forces:  Max     0.099784001 RMS     0.024550704
 Search for a local minimum.
 Step number   2 out of a maximum of   10
 All quantities printed in internal units (Hartrees-Bohrs-Radians)
 Mixed Optimization -- RFO/linear search
 Update second derivatives using D2CorX and points    1    2
 DE= -4.86D-02 DEPred=-3.84D-02 R= 1.26D+00
 TightC=F SS=  1.41D+00  RLast= 3.00D-01 DXNew= 5.0454D-01 8.9934D-01
 Trust test= 1.26D+00 RLast= 3.00D-01 DXMaxT set to 5.05D-01
 The second derivative matrix:
                          R1        R2        R3        R4        R5
           R1           0.09407
           R2          -0.00252   0.45224
           R3          -0.00166  -0.02422   0.44497
           R4           0.00893   0.09569   0.07216   0.95597
           R5           0.00023   0.00023   0.00291  -0.00751   0.54363
           R6           0.00081   0.01836   0.00185  -0.04014  -0.00297
           A1          -0.00011  -0.00179  -0.00066   0.00508   0.00023
           A2           0.00021   0.00223   0.00170  -0.00845  -0.00017
           A3          -0.00066  -0.00868  -0.00457   0.02794   0.00093
           A4          -0.00004   0.00565  -0.00324  -0.00309  -0.00140
           A5           0.00045   0.00620   0.00302  -0.01935  -0.00070
           A6           0.00015   0.00065   0.00172  -0.00544   0.00011
           A7          -0.00015  -0.00754   0.00161   0.01072   0.00152
           A8          -0.00001   0.00144  -0.00077  -0.00091  -0.00035
           D1          -0.00016  -0.00372  -0.00037   0.00812   0.00060
           D2           0.00001   0.00018   0.00003  -0.00042  -0.00003
           D3           0.00010   0.00196   0.00042  -0.00482  -0.00029
           D4           0.00035   0.00746   0.00106  -0.01703  -0.00117
           D5           0.00041   0.00894   0.00114  -0.02013  -0.00141
           D6          -0.00073  -0.01632  -0.00190   0.03628   0.00260
                          R6        A1        A2        A3        A4
           R6           0.33276
           A1           0.00002   0.24996
           A2          -0.00096   0.00012   0.24980
           A3           0.00156  -0.00030   0.00066   0.24809
           A4           0.00550  -0.00029  -0.00008  -0.00073   0.25363
           A5          -0.00086   0.00020  -0.00046   0.00128   0.00064
           A6          -0.00157   0.00013  -0.00013   0.00058  -0.00065
           A7          -0.00450   0.00018   0.00026   0.00011  -0.00347
           A8           0.00135  -0.00007  -0.00002  -0.00017   0.00090
           D1          -0.00099  -0.00000   0.00019  -0.00032  -0.00112
           D2           0.00003   0.00000  -0.00001   0.00002   0.00004
           D3           0.00029   0.00002  -0.00011   0.00024   0.00048
           D4           0.00167   0.00003  -0.00041   0.00073   0.00208
           D5           0.00213   0.00003  -0.00048   0.00084   0.00256
           D6          -0.00409  -0.00004   0.00086  -0.00147  -0.00476
                          A5        A6        A7        A8        D1
           A5           0.24914
           A6          -0.00042   0.25002
           A7          -0.00021   0.00075   0.25315
           A8           0.00015  -0.00016  -0.00085   0.16022
           D1           0.00017   0.00032   0.00091  -0.00027   0.03137
           D2          -0.00001  -0.00001  -0.00003   0.00001  -0.00001
           D3          -0.00014  -0.00016  -0.00036   0.00012  -0.00006
           D4          -0.00042  -0.00062  -0.00166   0.00051  -0.00034
           D5          -0.00048  -0.00075  -0.00206   0.00063  -0.00043
           D6           0.00082   0.00138   0.00386  -0.00116   0.00083
                          D2        D3        D4        D5        D6
           D2           0.03117
           D3           0.00000   0.03118
           D4           0.00001   0.00009   0.03048
           D5           0.00001   0.00012   0.00071   0.03084
           D6          -0.00002  -0.00023  -0.00138  -0.00177   0.03332
 ITU=  1  0
 Use linear search instead of GDIIS.
     Eigenvalues ---    0.02992   0.03119   0.09384   0.09693   0.14980
     Eigenvalues ---    0.16030   0.21416   0.23467   0.24986   0.25055
     Eigenvalues ---    0.32390   0.40827   0.47446   0.54375   0.98620
 RFO step:  Lambda=-5.37092993D-03 EMin= 2.99237274D-02
 Quartic linear search produced a step of  0.62674.
 Iteration  1 RMS(Cart)=  0.05688796 RMS(Int)=  0.00152628
 Iteration  2 RMS(Cart)=  0.00166998 RMS(Int)=  0.00061773
 Iteration  3 RMS(Cart)=  0.00000208 RMS(Int)=  0.00061772
 Iteration  4 RMS(Cart)=  0.00000000 RMS(Int)=  0.00061772
 Variable       Old X    -DE/DX   Delta X   Delta X   Delta X     New X
                                 (Linear)    (Quad)   (Total)
    R1        3.66856  -0.00615  -0.03510  -0.05024  -0.08534   3.58322
    R2        2.88108  -0.03428  -0.11580  -0.00246  -0.11826   2.76282
    R3        3.02192  -0.02323  -0.03868  -0.04359  -0.08227   2.93964
    R4        2.79818   0.09978   0.11290   0.01945   0.13236   2.93054
    R5        3.01569   0.00281   0.01339  -0.00471   0.00869   3.02438
    R6        2.08537   0.01128  -0.00559   0.06085   0.05526   2.14063
    A1        2.30754  -0.00182  -0.00413  -0.00708  -0.01122   2.29632
    A2        2.07957   0.00391   0.01406   0.01669   0.03042   2.10998
    A3        2.05064  -0.00989  -0.03392  -0.03646  -0.07057   1.98007
    A4        1.83633   0.00101  -0.04079   0.06157   0.01936   1.85568
    A5        1.94861   0.00578   0.02174   0.01026   0.03216   1.98077
    A6        1.77347   0.00208   0.01651   0.01145   0.02691   1.80038
    A7        1.69998  -0.00292   0.02702  -0.06578  -0.04023   1.65975
    A8        1.99137  -0.00117  -0.01541   0.00708  -0.00833   1.98304
    D1       -1.90215  -0.00059   0.01211  -0.01845  -0.00693  -1.90908
    D2        1.93699  -0.00243   0.00079  -0.00794  -0.00602   1.93097
    D3        0.06985   0.00485   0.01163   0.04929   0.06037   0.13022
    D4        0.89735   0.00387   0.00095   0.06509   0.06646   0.96381
    D5       -2.90414  -0.00019  -0.00956   0.03748   0.02765  -2.87650
    D6       -1.10841  -0.00077   0.03300  -0.02773   0.00513  -1.10328
         Item               Value     Threshold  Converged?
 Maximum Force            0.099784     0.000450     NO 
 RMS     Force            0.024551     0.000300     NO 
 Maximum Displacement     0.148522     0.001800     NO 
 RMS     Displacement     0.057898     0.001200     NO 
 Predicted change in Energy=-1.095649D-02
 GradGradGradGradGradGradGradGradGradGradGradGradGradGradGradGradGradGrad

                          Input orientation:                          
 ---------------------------------------------------------------------
 Center     Atomic      Atomic             Coordinates (Angstroms)
 Number     Number       Type             X           Y           Z
 ---------------------------------------------------------------------
      1          3           0        0.089790    4.472109    5.742936
      2          8           0       -0.576670    6.103420    6.442990
      3         15           0       -0.781106    7.412621    5.825163
      4          8           0        0.122393    8.622324    6.199565
      5          9           0       -2.276107    7.787416    5.653704
      6          9           0       -0.502455    7.220273    4.260958
      7          1           0        1.228754    8.422566    6.060884
 ---------------------------------------------------------------------
                    Distance matrix (angstroms):
                    1          2          3          4          5
     1  Li   0.000000
     2  O    1.896159   0.000000
     3  P    3.067871   1.462024   0.000000
     4  O    4.175387   2.625419   1.555593   0.000000
     5  F    4.073904   2.519305   1.550773   2.597660   0.000000
     6  F    3.177959   2.452373   1.600432   2.472728   2.325346
     7  H    4.123644   2.963782   2.261657   1.132771   3.585144
                    6          7
     6  F    0.000000
     7  H    2.771702   0.000000
 Stoichiometry    F2HLiO2P(2)
 Framework group  C1[X(F2HLiO2P)]
 Deg. of freedom    15
 Full point group                 C1      NOp   1
 Largest Abelian subgroup         C1      NOp   1
 Largest concise Abelian subgroup C1      NOp   1
                         Standard orientation:                         
 ---------------------------------------------------------------------
 Center     Atomic      Atomic             Coordinates (Angstroms)
 Number     Number       Type             X           Y           Z
 ---------------------------------------------------------------------
      1          3           0       -2.919501    0.179037    0.129249
      2          8           0       -1.218277    0.110194   -0.705326
      3         15           0        0.131717    0.025297   -0.150509
      4          8           0        1.103897    1.237343   -0.225878
      5          9           0        0.822226   -1.338204   -0.413108
      6          9           0       -0.042579   -0.204455    1.423727
      7          1           0        0.680961    2.187058    0.223941
 ---------------------------------------------------------------------
 Rotational constants (GHZ):           4.3705073           3.0006269           2.7873016
 Standard basis: def2SVP (5D, 7F)
 There are    93 symmetry adapted cartesian basis functions of A   symmetry.
 There are    88 symmetry adapted basis functions of A   symmetry.
    88 basis functions,   160 primitive gaussians,    93 cartesian basis functions
    27 alpha electrons       26 beta electrons
       nuclear repulsion energy       304.6390919122 Hartrees.
 NAtoms=    7 NActive=    7 NUniq=    7 SFac= 1.00D+00 NAtFMM=   60 NAOKFM=F Big=F
 Integral buffers will be    131072 words long.
 Raffenetti 2 integral format.
 Two-electron integral symmetry is turned on.
 ------------------------------------------------------------------------------
 Polarizable Continuum Model (PCM)
 =================================
 Model                : PCM.
 Atomic radii         : UFF (Universal Force Field).
 Polarization charges : Total charges.
 Charge compensation  : None.
 Solution method      : On-the-fly selection.
 Cavity type          : Scaled VdW (van der Waals Surface) (Alpha=1.100).
 Cavity algorithm     : GePol (No added spheres)
                        Default sphere list used, NSphG=    7.
                        Lebedev-Laikov grids with approx.  5.0 points / Ang**2.
                        Smoothing algorithm: York/Karplus (Gamma=1.0000).
                        Polarization charges: spherical gaussians, with
                                              point-specific exponents (IZeta= 3).
                        Self-potential: point-specific (ISelfS= 7).
                        Self-field    : sphere-specific E.n sum rule (ISelfD= 2).
 1st derivatives      : Analytical E(r).r(x)/FMM algorithm (CHGder, D1EAlg=3).
                        Cavity 1st derivative terms included.
 Solvent              : Water, Eps=  78.355300 Eps(inf)=   1.777849
 ------------------------------------------------------------------------------
 Spheres list:
 ISph  on   Nord     Re0    Alpha      Xe            Ye            Ze
    1  Li      1    1.2255  1.100     -2.919501      0.179037      0.129249
    2   O      2    1.7500  1.100     -1.218277      0.110194     -0.705326
    3   P      3    2.0735  1.100      0.131717      0.025297     -0.150509
    4   O      4    1.7500  1.100      1.103897      1.237343     -0.225878
    5   F      5    1.6820  1.100      0.822226     -1.338204     -0.413108
    6   F      6    1.6820  1.100     -0.042579     -0.204455      1.423727
    7   H      7    1.4430  1.100      0.680961      2.187058      0.223941
 ------------------------------------------------------------------------------
 One-electron integrals computed using PRISM.
 PrsmSu:  requested number of processors reduced to:  30 ShMem   1 Linda.
   1 Symmetry operations used in ECPInt.
 ECPInt:  NShTT=     820 NPrTT=    3410 LenC2=     815 LenP2D=    2691.
 LDataN:  DoStor=T MaxTD1= 4 Len=   56
 NBasis=    88 RedAO= T EigKep=  1.57D-02  NBF=    88
 NBsUse=    88 1.00D-06 EigRej= -1.00D+00 NBFU=    88
 Initial guess from the checkpoint file:  "/home/zz1/proj/gauss/new/chk/Li-JUHJON-2/111.chk"
 B after Tr=     0.000000    0.000000    0.000000
         Rot=    0.999966    0.006206    0.000425    0.005417 Ang=   0.95 deg.
 Initial guess <Sx>= 0.0000 <Sy>= 0.0000 <Sz>= 0.5000 <S**2>= 0.7522 S= 0.5011
 ExpMin= 2.10D-02 ExpMax= 8.00D+03 ExpMxC= 1.20D+03 IAcc=3 IRadAn=         5 AccDes= 0.00D+00
 Harris functional with IExCor= 1009 and IRadAn=       5 diagonalized for initial guess.
 HarFok:  IExCor= 1009 AccDes= 0.00D+00 IRadAn=         5 IDoV= 1 UseB2=F ITyADJ=14
 ICtDFT=  3500011 ScaDFX=  1.000000  1.000000  1.000000  1.000000
 FoFCou: FMM=F IPFlag=           0 FMFlag=      100000 FMFlg1=           0
         NFxFlg=           0 DoJE=T BraDBF=F KetDBF=T FulRan=T
         wScrn=  0.000000 ICntrl=       500 IOpCl=  0 I1Cent=   200000004 NGrid=           0
         NMat0=    1 NMatS0=      1 NMatT0=    0 NMatD0=    1 NMtDS0=    0 NMtDT0=    0
 Petite list used in FoFCou.
 Keep R1 and R2 ints in memory in canonical form, NReq=60312716.
 Requested convergence on RMS density matrix=1.00D-08 within 128 cycles.
 Requested convergence on MAX density matrix=1.00D-06.
 Requested convergence on             energy=1.00D-06.
 No special actions if energy rises.
 CoulSu:  requested number of processors reduced to:  42 ShMem   1 Linda.
 Inv3:  Mode=1 IEnd=     2787888.
 Iteration    1 A*A^-1 deviation from unit magnitude is 2.89D-15 for    592.
 Iteration    1 A*A^-1 deviation from orthogonality  is 1.22D-15 for    794     11.
 Iteration    1 A^-1*A deviation from unit magnitude is 2.66D-15 for    592.
 Iteration    1 A^-1*A deviation from orthogonality  is 1.25D-15 for    620    612.
 CoulSu:  requested number of processors reduced to:  42 ShMem   1 Linda.
 CoulSu:  requested number of processors reduced to:  42 ShMem   1 Linda.
 CoulSu:  requested number of processors reduced to:  43 ShMem   1 Linda.
 CoulSu:  requested number of processors reduced to:  40 ShMem   1 Linda.
 Error on total polarization charges =  0.03048
 SCF Done:  E(UM062X) =  -699.197918109     A.U. after   16 cycles
            NFock= 16  Conv=0.51D-08     -V/T= 2.0042
 <Sx>= 0.0000 <Sy>= 0.0000 <Sz>= 0.5000 <S**2>= 0.7522 S= 0.5011
 <L.S>=  0.00000000000    
 Annihilation of the first spin contaminant:
 S**2 before annihilation     0.7522,   after     0.7500

 **********************************************************************

            Population analysis using the SCF density.

 **********************************************************************

 Orbital symmetries:
 Alpha Orbitals:
       Occupied  (A) (A) (A) (A) (A) (A) (A) (A) (A) (A) (A) (A)
                 (A) (A) (A) (A) (A) (A) (A) (A) (A) (A) (A) (A)
                 (A) (A) (A)
       Virtual   (A) (A) (A) (A) (A) (A) (A) (A) (A) (A) (A) (A)
                 (A) (A) (A) (A) (A) (A) (A) (A) (A) (A) (A) (A)
                 (A) (A) (A) (A) (A) (A) (A) (A) (A) (A) (A) (A)
                 (A) (A) (A) (A) (A) (A) (A) (A) (A) (A) (A) (A)
                 (A) (A) (A) (A) (A) (A) (A) (A) (A) (A) (A) (A)
                 (A)
 Beta  Orbitals:
       Occupied  (A) (A) (A) (A) (A) (A) (A) (A) (A) (A) (A) (A)
                 (A) (A) (A) (A) (A) (A) (A) (A) (A) (A) (A) (A)
                 (A) (A)
       Virtual   (A) (A) (A) (A) (A) (A) (A) (A) (A) (A) (A) (A)
                 (A) (A) (A) (A) (A) (A) (A) (A) (A) (A) (A) (A)
                 (A) (A) (A) (A) (A) (A) (A) (A) (A) (A) (A) (A)
                 (A) (A) (A) (A) (A) (A) (A) (A) (A) (A) (A) (A)
                 (A) (A) (A) (A) (A) (A) (A) (A) (A) (A) (A) (A)
                 (A) (A)
 The electronic state is 2-A.
 Alpha  occ. eigenvalues --  -78.21627 -25.27740 -25.25082 -19.64228 -19.61483
 Alpha  occ. eigenvalues --   -7.00986  -5.13135  -5.13006  -5.12855  -2.10925
 Alpha  occ. eigenvalues --   -1.37923  -1.31979  -1.14128  -1.09600  -0.72483
 Alpha  occ. eigenvalues --   -0.63638  -0.62129  -0.59378  -0.55764  -0.54387
 Alpha  occ. eigenvalues --   -0.52401  -0.51341  -0.47092  -0.43656  -0.41228
 Alpha  occ. eigenvalues --   -0.39332  -0.11110
 Alpha virt. eigenvalues --    0.02065   0.10496   0.12498   0.15244   0.15811
 Alpha virt. eigenvalues --    0.17485   0.20575   0.23981   0.28971   0.35118
 Alpha virt. eigenvalues --    0.52534   0.55537   0.57818   0.61843   0.63435
 Alpha virt. eigenvalues --    0.64247   0.66034   0.67112   0.72727   0.89634
 Alpha virt. eigenvalues --    0.90584   1.00491   1.02308   1.08866   1.12620
 Alpha virt. eigenvalues --    1.17654   1.19502   1.24805   1.25970   1.28568
 Alpha virt. eigenvalues --    1.33425   1.35388   1.41049   1.41819   1.50278
 Alpha virt. eigenvalues --    1.52983   1.57597   1.66386   1.82683   1.92961
 Alpha virt. eigenvalues --    1.94999   2.68993   2.71368   2.72491   2.82397
 Alpha virt. eigenvalues --    2.83670   2.86568   2.95510   3.10416   3.11294
 Alpha virt. eigenvalues --    3.12312   3.13614   3.15021   3.21487   3.27520
 Alpha virt. eigenvalues --    3.30385   3.32165   3.41426   3.52642   3.62281
 Alpha virt. eigenvalues --    3.70131
  Beta  occ. eigenvalues --  -78.21521 -25.27552 -25.25052 -19.63580 -19.61403
  Beta  occ. eigenvalues --   -7.00894  -5.13041  -5.12961  -5.12778  -2.10908
  Beta  occ. eigenvalues --   -1.37452  -1.31799  -1.13028  -1.08731  -0.71739
  Beta  occ. eigenvalues --   -0.63132  -0.61296  -0.59195  -0.54880  -0.54267
  Beta  occ. eigenvalues --   -0.52070  -0.51029  -0.46479  -0.43200  -0.41054
  Beta  occ. eigenvalues --   -0.38897
  Beta virt. eigenvalues --    0.01075   0.05349   0.10501   0.11264   0.12820
  Beta virt. eigenvalues --    0.14222   0.17575   0.20961   0.23440   0.28227
  Beta virt. eigenvalues --    0.34737   0.53889   0.55442   0.57627   0.61744
  Beta virt. eigenvalues --    0.64006   0.64359   0.64760   0.65757   0.73017
  Beta virt. eigenvalues --    0.90233   0.90840   1.00564   1.02826   1.08967
  Beta virt. eigenvalues --    1.13036   1.17805   1.19546   1.25159   1.26226
  Beta virt. eigenvalues --    1.28651   1.33737   1.35247   1.41182   1.41860
  Beta virt. eigenvalues --    1.50442   1.54801   1.58424   1.66844   1.83184
  Beta virt. eigenvalues --    1.93079   1.98516   2.69065   2.71447   2.72617
  Beta virt. eigenvalues --    2.82457   2.84202   2.87071   2.95711   3.10514
  Beta virt. eigenvalues --    3.11418   3.12391   3.13635   3.15052   3.21859
  Beta virt. eigenvalues --    3.27726   3.30450   3.32290   3.41722   3.53589
  Beta virt. eigenvalues --    3.62268   3.70114
          Condensed to atoms (all electrons):
               1          2          3          4          5          6
     1  Li   2.107304   0.076454   0.024564  -0.031312  -0.006711   0.004866
     2  O    0.076454   8.106514   0.515134  -0.019063  -0.017124  -0.028801
     3  P    0.024564   0.515134  12.328881   0.309949   0.243791   0.278536
     4  O   -0.031312  -0.019063   0.309949   8.559330  -0.009921  -0.022426
     5  F   -0.006711  -0.017124   0.243791  -0.009921   9.125000  -0.023670
     6  F    0.004866  -0.028801   0.278536  -0.022426  -0.023670   9.174283
     7  H    0.067606  -0.014229   0.104023  -0.390934  -0.004803  -0.007784
               7
     1  Li   0.067606
     2  O   -0.014229
     3  P    0.104023
     4  O   -0.390934
     5  F   -0.004803
     6  F   -0.007784
     7  H    1.502401
          Atomic-Atomic Spin Densities.
               1          2          3          4          5          6
     1  Li   0.074749  -0.018487   0.034465  -0.032695  -0.008168  -0.005067
     2  O   -0.018487   0.057321  -0.034220   0.010834   0.004147   0.001058
     3  P    0.034465  -0.034220   0.337696  -0.145771  -0.096130  -0.008085
     4  O   -0.032695   0.010834  -0.145771   0.790090   0.003958   0.006120
     5  F   -0.008168   0.004147  -0.096130   0.003958   0.112414   0.002071
     6  F   -0.005067   0.001058  -0.008085   0.006120   0.002071   0.013981
     7  H    0.067831  -0.014414   0.114740  -0.665792  -0.005624  -0.009164
               7
     1  Li   0.067831
     2  O   -0.014414
     3  P    0.114740
     4  O   -0.665792
     5  F   -0.005624
     6  F   -0.009164
     7  H    1.210537
 Mulliken charges and spin densities:
               1          2
     1  Li   0.757229   0.112628
     2  O   -0.618885   0.006239
     3  P    1.195123   0.202694
     4  O   -0.395623  -0.033256
     5  F   -0.306561   0.012668
     6  F   -0.375003   0.000913
     7  H   -0.256280   0.698113
 Sum of Mulliken charges =  -0.00000   1.00000
 Mulliken charges and spin densities with hydrogens summed into heavy atoms:
               1          2
[...]
           A4           0.00066   0.02999   0.00288  -0.03111   0.00034
           A5          -0.00310   0.01029  -0.02681   0.02422   0.01320
           A6           0.00335  -0.01707   0.00597  -0.06719  -0.00406
           A7          -0.00039  -0.00981   0.00476   0.00615   0.00064
           A8           0.00131   0.00439   0.00914  -0.01840  -0.00516
           D1          -0.00017  -0.00727   0.00557   0.00981  -0.00012
           D2           0.00018   0.02690  -0.00312  -0.00219   0.00316
           D3          -0.00025  -0.01824  -0.00419  -0.00309  -0.00028
           D4          -0.00119   0.00096  -0.01677  -0.01175   0.00819
           D5           0.00056   0.00834   0.02468   0.01556  -0.01338
           D6           0.00075  -0.00871  -0.00738  -0.00395   0.00749
                          R6        A1        A2        A3        A4
           R6           0.02025
           A1          -0.02594   0.24744
           A2           0.00047   0.00062   0.25227
           A3           0.01158  -0.00060   0.00203   0.23990
           A4           0.00030  -0.00000  -0.00039   0.00387   0.25375
           A5          -0.00235  -0.00108  -0.00748  -0.00814   0.00323
           A6          -0.01028   0.00040   0.00022   0.01028  -0.00593
           A7          -0.00052   0.00071   0.00415   0.00580  -0.00662
           A8          -0.00264  -0.00012   0.00123   0.00221   0.00055
           D1          -0.00312   0.00009   0.00193   0.00207  -0.00227
           D2          -0.00249  -0.00022  -0.00239  -0.00079   0.00299
           D3          -0.00326  -0.00041   0.00008  -0.00046  -0.00156
           D4          -0.00588  -0.00072  -0.00543  -0.00600   0.00402
           D5           0.00047  -0.00042   0.01071   0.01070  -0.00166
           D6          -0.00568   0.00052  -0.00544  -0.00261  -0.00333
                          A5        A6        A7        A8        D1
           A5           0.26252
           A6          -0.00021   0.24639
           A7           0.00167  -0.00437   0.24589
           A8          -0.00284   0.00003  -0.00119   0.16153
           D1          -0.00117  -0.00164  -0.00026  -0.00056   0.03227
           D2           0.00120  -0.00046   0.00189   0.00007  -0.00102
           D3           0.00161   0.00059  -0.00125  -0.00050  -0.00019
           D4           0.00895   0.00130   0.00017  -0.00196  -0.00114
           D5          -0.01250  -0.00574  -0.00777   0.00298   0.00077
           D6           0.00487   0.00230   0.00721  -0.00187   0.00011
                          D2        D3        D4        D5        D6
           D2           0.03337
           D3          -0.00083   0.03206
           D4           0.00133   0.00067   0.03333
           D5          -0.00167  -0.00071  -0.00362   0.03541
           D6           0.00057  -0.00006   0.00114  -0.00331   0.03241
 ITU=  1  1  1  1  1  1  1  1  0
 Use linear search instead of GDIIS.
     Eigenvalues ---    0.00950   0.03057   0.03371   0.07903   0.09563
     Eigenvalues ---    0.14977   0.15920   0.21955   0.24343   0.24893
     Eigenvalues ---    0.26033   0.33727   0.56752   0.64362   0.80051
 RFO step:  Lambda=-1.36781867D-03 EMin= 9.50212441D-03
 Quartic linear search produced a step of  0.48181.
 Iteration  1 RMS(Cart)=  0.06242485 RMS(Int)=  0.06319241
 Iteration  2 RMS(Cart)=  0.03925179 RMS(Int)=  0.01837840
 Iteration  3 RMS(Cart)=  0.01607618 RMS(Int)=  0.00011173
 Iteration  4 RMS(Cart)=  0.00003935 RMS(Int)=  0.00011094
 Iteration  5 RMS(Cart)=  0.00000000 RMS(Int)=  0.00011094
 Variable       Old X    -DE/DX   Delta X   Delta X   Delta X     New X
                                 (Linear)    (Quad)   (Total)
    R1        3.49246  -0.00155   0.00237  -0.02134  -0.01897   3.47349
    R2        2.82118   0.00302  -0.01082   0.01348   0.00265   2.82384
    R3        2.78113   0.00720  -0.01667   0.03133   0.01465   2.79578
    R4        3.05384  -0.01112  -0.06070  -0.00877  -0.06948   2.98436
    R5        3.00837   0.00353   0.00807   0.00605   0.01412   3.02249
    R6        4.34427   0.00299   0.40088   0.08083   0.48172   4.82599
    A1        2.51374   0.00066   0.05042   0.01160   0.06202   2.57575
    A2        2.18076  -0.00347  -0.00532  -0.01277  -0.01817   2.16260
    A3        1.88458  -0.00551   0.00069  -0.02304  -0.02223   1.86234
    A4        1.85774   0.00266  -0.00826   0.00703  -0.00141   1.85633
    A5        1.87551   0.00760   0.00664   0.03586   0.04249   1.91800
    A6        1.92476  -0.00092   0.00662  -0.00878  -0.00242   1.92234
    A7        1.67281   0.00048   0.00152   0.00595   0.00731   1.68012
    A8        2.09322  -0.00089  -0.00099  -0.00260  -0.00359   2.08963
    D1       -1.85751   0.00130   0.04801   0.01946   0.06741  -1.79011
    D2        2.19679  -0.00090   0.04199   0.00228   0.04423   2.24102
    D3        0.41709  -0.00044   0.04329   0.00141   0.04481   0.46190
    D4        1.38221   0.00088   0.04642   0.01030   0.05686   1.43907
    D5       -2.66836  -0.00230   0.05002   0.00328   0.05306  -2.61530
    D6       -0.86546   0.00132   0.05731   0.02275   0.08016  -0.78530
         Item               Value     Threshold  Converged?
 Maximum Force            0.011119     0.000450     NO 
 RMS     Force            0.004052     0.000300     NO 
 Maximum Displacement     0.328361     0.001800     NO 
 RMS     Displacement     0.106983     0.001200     NO 
 Predicted change in Energy=-1.177376D-03
 GradGradGradGradGradGradGradGradGradGradGradGradGradGradGradGradGradGrad

                          Input orientation:                          
 ---------------------------------------------------------------------
 Center     Atomic      Atomic             Coordinates (Angstroms)
 Number     Number       Type             X           Y           Z
 ---------------------------------------------------------------------
      1          3           0       -0.006087    4.275237    5.958809
      2          8           0       -0.773961    5.923961    6.224641
      3         15           0       -0.896241    7.345107    5.779274
      4          8           0       -0.232444    8.481727    6.454757
      5          9           0       -2.439675    7.640379    5.622188
      6          9           0       -0.556093    7.358328    4.216482
      7          1           0        2.209101    9.015991    5.930049
 ---------------------------------------------------------------------
                    Distance matrix (angstroms):
                    1          2          3          4          5
     1  Li   0.000000
     2  O    1.838093   0.000000
     3  P    3.201360   1.494309   0.000000
     4  O    4.241669   2.624569   1.479463   0.000000
     5  F    4.166514   2.466505   1.579256   2.504577   0.000000
     6  F    3.583805   2.477414   1.599435   2.525203   2.367159
     7  H    5.232842   4.306518   3.529552   2.553802   4.857799
                    6          7
     6  F    0.000000
     7  H    3.651090   0.000000
 Stoichiometry    F2HLiO2P(2)
 Framework group  C1[X(F2HLiO2P)]
 Deg. of freedom    15
 Full point group                 C1      NOp   1
 Largest Abelian subgroup         C1      NOp   1
 Largest concise Abelian subgroup C1      NOp   1
                         Standard orientation:                         
 ---------------------------------------------------------------------
 Center     Atomic      Atomic             Coordinates (Angstroms)
 Number     Number       Type             X           Y           Z
 ---------------------------------------------------------------------
      1          3           0       -3.033366    0.510119    0.005014
      2          8           0       -1.323863    0.033431   -0.473475
      3         15           0        0.127298    0.016233   -0.117390
      4          8           0        1.128584    0.942886   -0.689711
      5          9           0        0.618123   -1.475452   -0.284771
      6          9           0        0.199557    0.045508    1.480144
      7          1           0        1.393733    3.285103    0.292949
 ---------------------------------------------------------------------
 Rotational constants (GHZ):           4.1377467           2.8220253           2.6386545
 Standard basis: def2SVP (5D, 7F)
 There are    93 symmetry adapted cartesian basis functions of A   symmetry.
 There are    88 symmetry adapted basis functions of A   symmetry.
    88 basis functions,   160 primitive gaussians,    93 cartesian basis functions
    27 alpha electrons       26 beta electrons
       nuclear repulsion energy       299.6925902856 Hartrees.
 NAtoms=    7 NActive=    7 NUniq=    7 SFac= 1.00D+00 NAtFMM=   60 NAOKFM=F Big=F
 Integral buffers will be    131072 words long.
 Raffenetti 2 integral format.
 Two-electron integral symmetry is turned on.
 ------------------------------------------------------------------------------
 Polarizable Continuum Model (PCM)
 =================================
 Model                : PCM.
 Atomic radii         : UFF (Universal Force Field).
 Polarization charges : Total charges.
 Charge compensation  : None.
 Solution method      : On-the-fly selection.
 Cavity type          : Scaled VdW (van der Waals Surface) (Alpha=1.100).
 Cavity algorithm     : GePol (No added spheres)
                        Default sphere list used, NSphG=    7.
                        Lebedev-Laikov grids with approx.  5.0 points / Ang**2.
                        Smoothing algorithm: York/Karplus (Gamma=1.0000).
                        Polarization charges: spherical gaussians, with
                                              point-specific exponents (IZeta= 3).
                        Self-potential: point-specific (ISelfS= 7).
                        Self-field    : sphere-specific E.n sum rule (ISelfD= 2).
 1st derivatives      : Analytical E(r).r(x)/FMM algorithm (CHGder, D1EAlg=3).
                        Cavity 1st derivative terms included.
 Solvent              : Water, Eps=  78.355300 Eps(inf)=   1.777849
 ------------------------------------------------------------------------------
 Spheres list:
 ISph  on   Nord     Re0    Alpha      Xe            Ye            Ze
    1  Li      1    1.2255  1.100     -3.033366      0.510119      0.005014
    2   O      2    1.7500  1.100     -1.323863      0.033431     -0.473475
    3   P      3    2.0735  1.100      0.127298      0.016233     -0.117390
    4   O      4    1.7500  1.100      1.128584      0.942886     -0.689711
    5   F      5    1.6820  1.100      0.618123     -1.475452     -0.284771
    6   F      6    1.6820  1.100      0.199557      0.045508      1.480144
    7   H      7    1.4430  1.100      1.393733      3.285103      0.292949
 ------------------------------------------------------------------------------
 One-electron integrals computed using PRISM.
 PrsmSu:  requested number of processors reduced to:  30 ShMem   1 Linda.
   1 Symmetry operations used in ECPInt.
 ECPInt:  NShTT=     820 NPrTT=    3410 LenC2=     814 LenP2D=    2631.
 LDataN:  DoStor=T MaxTD1= 4 Len=   56
 NBasis=    88 RedAO= T EigKep=  1.67D-02  NBF=    88
 NBsUse=    88 1.00D-06 EigRej= -1.00D+00 NBFU=    88
 Initial guess from the checkpoint file:  "/home/zz1/proj/gauss/new/chk/Li-JUHJON-2/111.chk"
 B after Tr=    -0.000000   -0.000000    0.000000
         Rot=    0.999287    0.014869   -0.018187    0.029549 Ang=   4.33 deg.
 Initial guess <Sx>= 0.0000 <Sy>= 0.0000 <Sz>= 0.5000 <S**2>= 0.7515 S= 0.5007
 ExpMin= 2.10D-02 ExpMax= 8.00D+03 ExpMxC= 1.20D+03 IAcc=3 IRadAn=         5 AccDes= 0.00D+00
 Harris functional with IExCor= 1009 and IRadAn=       5 diagonalized for initial guess.
 HarFok:  IExCor= 1009 AccDes= 0.00D+00 IRadAn=         5 IDoV= 1 UseB2=F ITyADJ=14
 ICtDFT=  3500011 ScaDFX=  1.000000  1.000000  1.000000  1.000000
 FoFCou: FMM=F IPFlag=           0 FMFlag=      100000 FMFlg1=           0
         NFxFlg=           0 DoJE=T BraDBF=F KetDBF=T FulRan=T
         wScrn=  0.000000 ICntrl=       500 IOpCl=  0 I1Cent=   200000004 NGrid=           0
         NMat0=    1 NMatS0=      1 NMatT0=    0 NMatD0=    1 NMtDS0=    0 NMtDT0=    0
 Petite list used in FoFCou.
 Keep R1 and R2 ints in memory in canonical form, NReq=60312716.
 Requested convergence on RMS density matrix=1.00D-08 within 128 cycles.
 Requested convergence on MAX density matrix=1.00D-06.
 Requested convergence on             energy=1.00D-06.
 No special actions if energy rises.
 CoulSu:  requested number of processors reduced to:  41 ShMem   1 Linda.
 Inv3:  Mode=1 IEnd=     3251043.
 Iteration    1 A*A^-1 deviation from unit magnitude is 2.89D-15 for    549.
 Iteration    1 A*A^-1 deviation from orthogonality  is 1.53D-15 for   1008    606.
 Iteration    1 A^-1*A deviation from unit magnitude is 2.89D-15 for    189.
 Iteration    1 A^-1*A deviation from orthogonality  is 1.53D-15 for    997    531.
 CoulSu:  requested number of processors reduced to:  41 ShMem   1 Linda.
 CoulSu:  requested number of processors reduced to:  41 ShMem   1 Linda.
 Rare condition: small coef for last iteration:  0.000D+00
 Rare condition: small coef for last iteration:  0.000D+00
 EnCoef did     3 forward-backward iterations
 Rare condition: small coef for last iteration:  0.000D+00
 EnCoef did   100 forward-backward iterations
 EnCoef did     4 forward-backward iterations
 Rare condition: small coef for last iteration:  0.111D-15
 EnCoef did   100 forward-backward iterations
 Rare condition: small coef for last iteration:  0.000D+00
 Rare condition: small coef for last iteration:  0.000D+00
 EnCoef did   100 forward-backward iterations
 EnCoef did   100 forward-backward iterations
 Rare condition: small coef for last iteration:  0.222D-15
 EnCoef did   100 forward-backward iterations
 EnCoef did   100 forward-backward iterations
 Rare condition: small coef for last iteration: -0.151D-15
 EnCoef did   100 forward-backward iterations
 EnCoef did   100 forward-backward iterations
 EnCoef did   100 forward-backward iterations
 Rare condition: small coef for last iteration: -0.226D-15
 EnCoef did   100 forward-backward iterations
 EnCoef did     1 forward-backward iterations
 Rare condition: small coef for last iteration:  0.000D+00
 EnCoef did   100 forward-backward iterations
 EnCoef did   100 forward-backward iterations
 EnCoef did   100 forward-backward iterations
 Rare condition: small coef for last iteration:  0.453D-15
 EnCoef did   100 forward-backward iterations
 EnCoef did     1 forward-backward iterations
 Rare condition: small coef for last iteration:  0.222D-15
 EnCoef did   100 forward-backward iterations
 EnCoef did   100 forward-backward iterations
 EnCoef did   100 forward-backward iterations
 Rare condition: small coef for last iteration:  0.113D-15
 EnCoef did   100 forward-backward iterations
 EnCoef did     1 forward-backward iterations
 Rare condition: small coef for last iteration:  0.000D+00
 EnCoef did   100 forward-backward iterations
 EnCoef did   100 forward-backward iterations
 EnCoef did   100 forward-backward iterations
 Rare condition: small coef for last iteration:  0.283D-15
 EnCoef did   100 forward-backward iterations
 EnCoef did     1 forward-backward iterations
 Rare condition: small coef for last iteration:  0.000D+00
 EnCoef did   100 forward-backward iterations
 EnCoef did   100 forward-backward iterations
 Rare condition: small coef for last iteration:  0.000D+00
 EnCoef did   100 forward-backward iterations
 EnCoef did   100 forward-backward iterations
 Rare condition: small coef for last iteration:  0.000D+00
 EnCoef did   100 forward-backward iterations
 EnCoef did   100 forward-backward iterations
 Rare condition: small coef for last iteration:  0.000D+00
 EnCoef did   100 forward-backward iterations
 EnCoef did   100 forward-backward iterations
 Rare condition: small coef for last iteration: -0.225D-15
 EnCoef did   100 forward-backward iterations
 Rare condition: small coef for last iteration:  0.826D-05
 EnCoef did   100 forward-backward iterations
 EnCoef did   100 forward-backward iterations
 Rare condition: small coef for last iteration: -0.114D-15
 EnCoef did    22 forward-backward iterations
 Rare condition: small coef for last iteration:  0.000D+00
 Rare condition: small coef for last iteration:  0.000D+00
 EnCoef did     2 forward-backward iterations
 EnCoef did   100 forward-backward iterations
 EnCoef did   100 forward-backward iterations
 EnCoef did   100 forward-backward iterations
 Rare condition: small coef for last iteration:  0.424D-15
 EnCoef did   100 forward-backward iterations
 EnCoef did   100 forward-backward iterations
 Rare condition: small coef for last iteration: -0.129D-14
 EnCoef did   100 forward-backward iterations
 EnCoef did   100 forward-backward iterations
 EnCoef did   100 forward-backward iterations
 Rare condition: small coef for last iteration:  0.000D+00
 EnCoef did    19 forward-backward iterations
 Rare condition: small coef for last iteration:  0.000D+00
 Rare condition: small coef for last iteration:  0.000D+00
 EnCoef did   100 forward-backward iterations
 EnCoef did   100 forward-backward iterations
 Rare condition: small coef for last iteration: -0.450D-15
 EnCoef did   100 forward-backward iterations
 EnCoef did   100 forward-backward iterations
 EnCoef did   100 forward-backward iterations
 EnCoef did   100 forward-backward iterations
 EnCoef did   100 forward-backward iterations
 EnCoef did   100 forward-backward iterations
 EnCoef did   100 forward-backward iterations
 EnCoef did   100 forward-backward iterations
 EnCoef did   100 forward-backward iterations
 EnCoef did   100 forward-backward iterations
 EnCoef did   100 forward-backward iterations
 EnCoef did   100 forward-backward iterations
 EnCoef did   100 forward-backward iterations
 EnCoef did   100 forward-backward iterations
 EnCoef did   100 forward-backward iterations
 EnCoef did   100 forward-backward iterations
 EnCoef did   100 forward-backward iterations
 EnCoef did   100 forward-backward iterations
 EnCoef did   100 forward-backward iterations
 EnCoef did   100 forward-backward iterations
 Rare condition: small coef for last iteration:  0.954D-05
 EnCoef did   100 forward-backward iterations
 EnCoef did   100 forward-backward iterations
 EnCoef did   100 forward-backward iterations
 EnCoef did   100 forward-backward iterations
 EnCoef did   100 forward-backward iterations
 EnCoef did   100 forward-backward iterations
 EnCoef did   100 forward-backward iterations
 EnCoef did   100 forward-backward iterations
 EnCoef did   100 forward-backward iterations
 EnCoef did   100 forward-backward iterations
 EnCoef did   100 forward-backward iterations
 EnCoef did   100 forward-backward iterations
 EnCoef did   100 forward-backward iterations
 >>>>>>>>>> Convergence criterion not met.
 CoulSu:  requested number of processors reduced to:  42 ShMem   1 Linda.
 CoulSu:  requested number of processors reduced to:  40 ShMem   1 Linda.
 Error on total polarization charges =  0.00990
 SCF Done:  E(UM062X) =  -697.973505130     A.U. after  129 cycles
            NFock=128  Conv=0.23D-06     -V/T= 2.0029
 <Sx>= 0.0000 <Sy>= 0.0000 <Sz>= 0.5000 <S**2>= 1.3684 S= 0.7722
 <L.S>=  0.00000000000    
 Annihilation of the first spin contaminant:
 S**2 before annihilation     1.3684,   after     0.7518
 Convergence failure -- run terminated.
 Error termination via Lnk1e in /home/pub/g16/l502.exe at Sun Apr 23 08:35:55 2023.
 Job cpu time:       0 days  0 hours 49 minutes  2.8 seconds.
 Elapsed time:       0 days  0 hours  1 minutes  7.7 seconds.
 File lengths (MBytes):  RWF=     43 Int=      0 D2E=      0 Chk=      3 Scr=      1
