 Entering Gaussian System, Link 0=g16
 Initial command:
 /home/pub/g16/l1.exe "/home/zz1/gauss/SCRDIR/Gau-2437163.inp" -scrdir="/home/zz1/gauss/SCRDIR/"
 Entering Link 1 = /home/pub/g16/l1.exe PID=   2437165.
  
 Copyright (c) 1988,1990,1992,1993,1995,1998,2003,2009,2016,
            Gaussian, Inc.  All Rights Reserved.
  
 This is part of the Gaussian(R) 16 program.  It is based on
 the Gaussian(R) 09 system (copyright 2009, Gaussian, Inc.),
 the Gaussian(R) 03 system (copyright 2003, Gaussian, Inc.),
 the Gaussian(R) 98 system (copyright 1998, Gaussian, Inc.),
 the Gaussian(R) 94 system (copyright 1995, Gaussian, Inc.),
 the Gaussian 92(TM) system (copyright 1992, Gaussian, Inc.),
 the Gaussian 90(TM) system (copyright 1990, Gaussian, Inc.),
 the Gaussian 88(TM) system (copyright 1988, Gaussian, Inc.),
 the Gaussian 86(TM) system (copyright 1986, Carnegie Mellon
 University), and the Gaussian 82(TM) system (copyright 1983,
 Carnegie Mellon University). Gaussian is a federally registered
 trademark of Gaussian, Inc.
  
 This software contains proprietary and confidential information,
 including trade secrets, belonging to Gaussian, Inc.
  
 This software is provided under written license and may be
 used, copied, transmitted, or stored only in accord with that
 written license.
  
 The following legend is applicable only to US Government
 contracts under FAR:
  
                    RESTRICTED RIGHTS LEGEND
  
 Use, reproduction and disclosure by the US Government is
 subject to restrictions as set forth in subparagraphs (a)
 and (c) of the Commercial Computer Software - Restricted
 Rights clause in FAR 52.227-19.
  
 Gaussian, Inc.
 340 Quinnipiac St., Bldg. 40, Wallingford CT 06492
  
  
 ---------------------------------------------------------------
 Warning -- This program may not be used in any manner that
 competes with the business of Gaussian, Inc. or will provide
 assistance to any competitor of Gaussian, Inc.  The licensee
 of this program is prohibited from giving any competitor of
 Gaussian, Inc. access to this program.  By using this program,
 the user acknowledges that Gaussian, Inc. is engaged in the
 business of creating and licensing software in the field of
 computational chemistry and represents and warrants to the
 licensee that it is not a competitor of Gaussian, Inc. and that
 it will not use this program in any manner prohibited above.
 ---------------------------------------------------------------
  

 Cite this work as:
 Gaussian 16, Revision A.03,
 M. J. Frisch, G. W. Trucks, H. B. Schlegel, G. E. Scuseria, 
 M. A. Robb, J. R. Cheeseman, G. Scalmani, V. Barone, 
 G. A. Petersson, H. Nakatsuji, X. Li, M. Caricato, A. V. Marenich, 
 J. Bloino, B. G. Janesko, R. Gomperts, B. Mennucci, H. P. Hratchian, 
 J. V. Ortiz, A. F. Izmaylov, J. L. Sonnenberg, D. Williams-Young, 
 F. Ding, F. Lipparini, F. Egidi, J. Goings, B. Peng, A. Petrone, 
 T. Henderson, D. Ranasinghe, V. G. Zakrzewski, J. Gao, N. Rega, 
 G. Zheng, W. Liang, M. Hada, M. Ehara, K. Toyota, R. Fukuda, 
 J. Hasegawa, M. Ishida, T. Nakajima, Y. Honda, O. Kitao, H. Nakai, 
 T. Vreven, K. Throssell, J. A. Montgomery, Jr., J. E. Peralta, 
 F. Ogliaro, M. J. Bearpark, J. J. Heyd, E. N. Brothers, K. N. Kudin, 
 V. N. Staroverov, T. A. Keith, R. Kobayashi, J. Normand, 
 K. Raghavachari, A. P. Rendell, J. C. Burant, S. S. Iyengar, 
 J. Tomasi, M. Cossi, J. M. Millam, M. Klene, C. Adamo, R. Cammi, 
 J. W. Ochterski, R. L. Martin, K. Morokuma, O. Farkas, 
 J. B. Foresman, and D. J. Fox, Gaussian, Inc., Wallingford CT, 2016.
 
 ******************************************
 Gaussian 16:  ES64L-G16RevA.03 25-Dec-2016
                10-May-2023 
 ******************************************
 %chk=/home/zz1/proj/gauss/new/chk/Li-VUMCAH-2/65.chk
 %CPU=0-48
 SetSPE:  set environment variable "MP_BIND" = "yes"
 SetSPE:  set environment variable "MP_BLIST" = "0,1,2,3,4,5,6,7,8,9,10,11,12,13,14,15,16,17,18,19,20,21,22,23,24,25,26,27,28,29,30,31,32,33,34,35,36,37,38,39,40,41,42,43,44,45,46,47,48"
 Will use up to   49 processors via shared memory.
 ----------------------------------------------------
 # M062X/Def2SVP opt(MaxCyc=10)/freq SCRF pop(Always)
 ----------------------------------------------------
 1/6=10,18=20,19=15,26=3,38=1/1,3;
 2/9=110,12=2,17=6,18=5,40=1/2;
 3/5=43,7=101,11=2,25=1,30=1,70=2201,71=1,74=-55/1,2,3;
 4//1;
 5/5=2,38=5/2;
 6/7=2,8=2,9=2,10=2,28=1/1;
 7//1,2,3,16;
 1/6=10,18=20,19=15,26=3/3(2);
 2/9=110/2;
 99//99;
 2/9=110/2;
 3/5=43,7=101,11=2,25=1,30=1,70=2205,71=1,74=-55/1,2,3;
 4/5=5,16=3,69=1/1;
 5/5=2,38=5/2;
 6/7=2,8=2,9=2,10=2,28=1/1;
 7//1,2,3,16;
 1/6=10,18=20,19=15,26=3/3(-6);
 2/9=110/2;
 6/7=2,8=2,9=2,10=2,19=2,28=1/1;
 99/9=1/99;
 -----------
 Li-VUMCAH-2
 -----------
 Symbolic Z-matrix:
 Charge =  0 Multiplicity = 2
 Li                    2.48199  -0.14534   4.27194 
 O                     0.53855  -0.17047   4.31937 
 C                    -0.17104   0.80637   4.32208 
 C                    -1.7497    0.52647   4.79774 
 H                     0.06855   1.98407   4.12639 
 H                    -1.82639   0.33925   5.87042 
 H                    -2.30336   1.63597   4.63231 
 H                    -2.11684   0.02788   4.08267 
 
 Add virtual bond connecting atoms O2         and Li1        Dist= 3.67D+00.

 GradGradGradGradGradGradGradGradGradGradGradGradGradGradGradGradGradGrad
 Berny optimization.
 Initialization pass.
                           ----------------------------
                           !    Initial Parameters    !
                           ! (Angstroms and Degrees)  !
 --------------------------                            --------------------------
 ! Name  Definition              Value          Derivative Info.                !
 --------------------------------------------------------------------------------
 ! R1    R(1,2)                  1.9442         estimate D2E/DX2                !
 ! R2    R(2,3)                  1.2074         estimate D2E/DX2                !
 ! R3    R(3,4)                  1.6724         estimate D2E/DX2                !
 ! R4    R(3,5)                  1.2177         estimate D2E/DX2                !
 ! R5    R(4,6)                  1.0916         estimate D2E/DX2                !
 ! R6    R(4,7)                  1.251          estimate D2E/DX2                !
 ! R7    R(4,8)                  0.9459         estimate D2E/DX2                !
 ! A1    A(1,2,3)              125.246          estimate D2E/DX2                !
 ! A2    A(2,3,4)              114.8355         estimate D2E/DX2                !
 ! A3    A(2,3,5)              131.7988         estimate D2E/DX2                !
 ! A4    A(4,3,5)              113.1618         estimate D2E/DX2                !
 ! A5    A(3,4,6)              111.9948         estimate D2E/DX2                !
 ! A6    A(3,4,7)              103.3993         estimate D2E/DX2                !
 ! A7    A(3,4,8)              103.8629         estimate D2E/DX2                !
 ! A8    A(6,4,7)              104.5351         estimate D2E/DX2                !
 ! A9    A(6,4,8)              128.6971         estimate D2E/DX2                !
 ! A10   A(7,4,8)              101.2883         estimate D2E/DX2                !
 ! D1    D(1,2,3,4)           -163.4186         estimate D2E/DX2                !
 ! D2    D(1,2,3,5)             10.9463         estimate D2E/DX2                !
 ! D3    D(2,3,4,6)             72.5329         estimate D2E/DX2                !
 ! D4    D(2,3,4,7)           -175.4755         estimate D2E/DX2                !
 ! D5    D(2,3,4,8)            -70.046          estimate D2E/DX2                !
 ! D6    D(5,3,4,6)           -102.9005         estimate D2E/DX2                !
 ! D7    D(5,3,4,7)              9.0911         estimate D2E/DX2                !
 ! D8    D(5,3,4,8)            114.5206         estimate D2E/DX2                !
 --------------------------------------------------------------------------------
 Trust Radius=3.00D-01 FncErr=1.00D-07 GrdErr=1.00D-06 EigMax=2.50D+02 EigMin=1.00D-04
 Number of steps in this run=     10 maximum allowed number of steps=    100.
 GradGradGradGradGradGradGradGradGradGradGradGradGradGradGradGradGradGrad

                          Input orientation:                          
 ---------------------------------------------------------------------
 Center     Atomic      Atomic             Coordinates (Angstroms)
 Number     Number       Type             X           Y           Z
 ---------------------------------------------------------------------
      1          3           0        2.481990   -0.145340    4.271940
      2          8           0        0.538550   -0.170470    4.319370
      3          6           0       -0.171040    0.806370    4.322080
      4          6           0       -1.749700    0.526470    4.797740
      5          1           0        0.068550    1.984070    4.126390
      6          1           0       -1.826390    0.339250    5.870420
      7          1           0       -2.303360    1.635970    4.632310
      8          1           0       -2.116840    0.027880    4.082670
 ---------------------------------------------------------------------
                    Distance matrix (angstroms):
                    1          2          3          4          5
     1  Li   0.000000
     2  O    1.944181   0.000000
     3  C    2.819013   1.207370   0.000000
     4  C    4.316827   2.439396   1.672353   0.000000
     5  H    3.221842   2.213636   1.217652   2.425148   0.000000
     6  H    4.620834   2.873763   2.314247   1.091593   3.055793
     7  H    5.118838   3.381953   2.308954   1.250958   2.450120
     8  H    4.605982   2.673287   2.109384   0.945891   2.933346
                    6          7          8
     6  H    0.000000
     7  H    1.855236   0.000000
     8  H    1.837760   1.709634   0.000000
 Stoichiometry    C2H4LiO(2)
 Framework group  C1[X(C2H4LiO)]
 Deg. of freedom    18
 Full point group                 C1      NOp   1
 Largest Abelian subgroup         C1      NOp   1
 Largest concise Abelian subgroup C1      NOp   1
                         Standard orientation:                         
 ---------------------------------------------------------------------
 Center     Atomic      Atomic             Coordinates (Angstroms)
 Number     Number       Type             X           Y           Z
 ---------------------------------------------------------------------
      1          3           0        2.751444    0.035924    0.211115
      2          8           0        0.874003   -0.350522   -0.114024
      3          6           0       -0.023862    0.454329   -0.052416
      4          6           0       -1.555540   -0.208720    0.052901
      5          1           0       -0.020518    1.668720    0.036566
      6          1           0       -1.743623   -0.649611    1.033623
      7          1           0       -2.307477    0.790025    0.008238
      8          1           0       -1.698321   -0.586382   -0.802491
 ---------------------------------------------------------------------
 Rotational constants (GHZ):          44.1085063           4.7407151           4.4542331
 Standard basis: def2SVP (5D, 7F)
 There are    74 symmetry adapted cartesian basis functions of A   symmetry.
 There are    71 symmetry adapted basis functions of A   symmetry.
    71 basis functions,   119 primitive gaussians,    74 cartesian basis functions
    14 alpha electrons       13 beta electrons
       nuclear repulsion energy        81.0965194216 Hartrees.
 NAtoms=    8 NActive=    8 NUniq=    8 SFac= 1.00D+00 NAtFMM=   60 NAOKFM=F Big=F
 Integral buffers will be    131072 words long.
 Raffenetti 2 integral format.
 Two-electron integral symmetry is turned on.
 ------------------------------------------------------------------------------
 Polarizable Continuum Model (PCM)
 =================================
 Model                : PCM.
 Atomic radii         : UFF (Universal Force Field).
 Polarization charges : Total charges.
 Charge compensation  : None.
 Solution method      : On-the-fly selection.
 Cavity type          : Scaled VdW (van der Waals Surface) (Alpha=1.100).
 Cavity algorithm     : GePol (No added spheres)
                        Default sphere list used, NSphG=    8.
                        Lebedev-Laikov grids with approx.  5.0 points / Ang**2.
                        Smoothing algorithm: York/Karplus (Gamma=1.0000).
                        Polarization charges: spherical gaussians, with
                                              point-specific exponents (IZeta= 3).
                        Self-potential: point-specific (ISelfS= 7).
                        Self-field    : sphere-specific E.n sum rule (ISelfD= 2).
 1st derivatives      : Analytical E(r).r(x)/FMM algorithm (CHGder, D1EAlg=3).
                        Cavity 1st derivative terms included.
 Solvent              : Water, Eps=  78.355300 Eps(inf)=   1.777849
 ------------------------------------------------------------------------------
 Spheres list:
 ISph  on   Nord     Re0    Alpha      Xe            Ye            Ze
    1  Li      1    1.2255  1.100      2.751444      0.035924      0.211115
    2   O      2    1.7500  1.100      0.874003     -0.350522     -0.114024
    3   C      3    1.9255  1.100     -0.023862      0.454329     -0.052416
    4   C      4    1.9255  1.100     -1.555540     -0.208720      0.052901
    5   H      5    1.4430  1.100     -0.020518      1.668720      0.036566
    6   H      6    1.4430  1.100     -1.743623     -0.649611      1.033623
    7   H      7    1.4430  1.100     -2.307477      0.790025      0.008238
    8   H      8    1.4430  1.100     -1.698321     -0.586382     -0.802491
 ------------------------------------------------------------------------------
 One-electron integrals computed using PRISM.
 PrsmSu:  requested number of processors reduced to:  30 ShMem   1 Linda.
   1 Symmetry operations used in ECPInt.
 ECPInt:  NShTT=     630 NPrTT=    2273 LenC2=     631 LenP2D=    1999.
 LDataN:  DoStor=T MaxTD1= 4 Len=   56
 NBasis=    71 RedAO= T EigKep=  6.71D-03  NBF=    71
 NBsUse=    71 1.00D-06 EigRej= -1.00D+00 NBFU=    71
 ExpMin= 2.10D-02 ExpMax= 2.27D+03 ExpMxC= 3.41D+02 IAcc=3 IRadAn=         5 AccDes= 0.00D+00
 Harris functional with IExCor= 1009 and IRadAn=       5 diagonalized for initial guess.
 HarFok:  IExCor= 1009 AccDes= 0.00D+00 IRadAn=         5 IDoV= 1 UseB2=F ITyADJ=14
 ICtDFT=  3500011 ScaDFX=  1.000000  1.000000  1.000000  1.000000
 FoFCou: FMM=F IPFlag=           0 FMFlag=      100000 FMFlg1=           0
         NFxFlg=           0 DoJE=T BraDBF=F KetDBF=T FulRan=T
         wScrn=  0.000000 ICntrl=       500 IOpCl=  0 I1Cent=   200000004 NGrid=           0
         NMat0=    1 NMatS0=      1 NMatT0=    0 NMatD0=    1 NMtDS0=    0 NMtDT0=    0
 Petite list used in FoFCou.
 Initial guess <Sx>= 0.0000 <Sy>= 0.0000 <Sz>= 0.5000 <S**2>= 0.7500 S= 0.5000
 Keep R1 and R2 ints in memory in canonical form, NReq=50497283.
 Requested convergence on RMS density matrix=1.00D-08 within 128 cycles.
 Requested convergence on MAX density matrix=1.00D-06.
 Requested convergence on             energy=1.00D-06.
 No special actions if energy rises.
 CoulSu:  requested number of processors reduced to:  46 ShMem   1 Linda.
 Inv3:  Mode=1 IEnd=     1934427.
 Iteration    1 A*A^-1 deviation from unit magnitude is 3.11D-15 for    239.
 Iteration    1 A*A^-1 deviation from orthogonality  is 1.52D-15 for    371    350.
 Iteration    1 A^-1*A deviation from unit magnitude is 2.89D-15 for    732.
 Iteration    1 A^-1*A deviation from orthogonality  is 1.75D-15 for    652    572.
 CoulSu:  requested number of processors reduced to:  46 ShMem   1 Linda.
 CoulSu:  requested number of processors reduced to:  46 ShMem   1 Linda.
 CoulSu:  requested number of processors reduced to:  47 ShMem   1 Linda.
 CoulSu:  requested number of processors reduced to:  44 ShMem   1 Linda.
 Error on total polarization charges =  0.01309
 SCF Done:  E(UM062X) =  -161.117262758     A.U. after   16 cycles
            NFock= 16  Conv=0.76D-08     -V/T= 2.0096
 <Sx>= 0.0000 <Sy>= 0.0000 <Sz>= 0.5000 <S**2>= 0.7548 S= 0.5024
 <L.S>=  0.00000000000    
 Annihilation of the first spin contaminant:
 S**2 before annihilation     0.7548,   after     0.7500

 **********************************************************************

            Population analysis using the SCF density.

 **********************************************************************

 Orbital symmetries:
 Alpha Orbitals:
       Occupied  (A) (A) (A) (A) (A) (A) (A) (A) (A) (A) (A) (A)
                 (A) (A)
       Virtual   (A) (A) (A) (A) (A) (A) (A) (A) (A) (A) (A) (A)
                 (A) (A) (A) (A) (A) (A) (A) (A) (A) (A) (A) (A)
                 (A) (A) (A) (A) (A) (A) (A) (A) (A) (A) (A) (A)
                 (A) (A) (A) (A) (A) (A) (A) (A) (A) (A) (A) (A)
                 (A) (A) (A) (A) (A) (A) (A) (A) (A)
 Beta  Orbitals:
       Occupied  (A) (A) (A) (A) (A) (A) (A) (A) (A) (A) (A) (A)
                 (A)
       Virtual   (A) (A) (A) (A) (A) (A) (A) (A) (A) (A) (A) (A)
                 (A) (A) (A) (A) (A) (A) (A) (A) (A) (A) (A) (A)
                 (A) (A) (A) (A) (A) (A) (A) (A) (A) (A) (A) (A)
                 (A) (A) (A) (A) (A) (A) (A) (A) (A) (A) (A) (A)
                 (A) (A) (A) (A) (A) (A) (A) (A) (A) (A)
 The electronic state is 2-A.
 Alpha  occ. eigenvalues --  -19.54550 -10.53355 -10.51519  -2.09618  -1.08248
 Alpha  occ. eigenvalues --   -0.75618  -0.58015  -0.49392  -0.47951  -0.43214
 Alpha  occ. eigenvalues --   -0.41640  -0.37669  -0.25598  -0.10776
 Alpha virt. eigenvalues --    0.00229   0.11055   0.11558   0.13730   0.14040
 Alpha virt. eigenvalues --    0.15973   0.19777   0.19937   0.21399   0.27872
 Alpha virt. eigenvalues --    0.39742   0.47888   0.56856   0.58599   0.61350
 Alpha virt. eigenvalues --    0.63479   0.63965   0.66888   0.67810   0.68864
 Alpha virt. eigenvalues --    0.70282   0.74836   0.76286   0.83843   0.85669
 Alpha virt. eigenvalues --    0.96638   1.13552   1.16769   1.21653   1.38037
 Alpha virt. eigenvalues --    1.39346   1.50056   1.53068   1.57411   1.67920
 Alpha virt. eigenvalues --    1.71293   1.74857   1.77569   1.86052   1.94103
 Alpha virt. eigenvalues --    1.96280   2.05127   2.05819   2.23326   2.32127
 Alpha virt. eigenvalues --    2.41038   2.52662   2.57156   2.60180   2.70855
 Alpha virt. eigenvalues --    2.81810   2.86789   2.97379   3.26563   3.38643
 Alpha virt. eigenvalues --    3.44101   3.74922
  Beta  occ. eigenvalues --  -19.53813 -10.52735 -10.51570  -2.09622  -1.06178
  Beta  occ. eigenvalues --   -0.75104  -0.55341  -0.48471  -0.46619  -0.41785
  Beta  occ. eigenvalues --   -0.37609  -0.35394  -0.24983
  Beta virt. eigenvalues --    0.00094   0.10310   0.10590   0.11627   0.13450
  Beta virt. eigenvalues --    0.14004   0.15959   0.19605   0.19800   0.21142
  Beta virt. eigenvalues --    0.29185   0.40429   0.48057   0.58975   0.60186
  Beta virt. eigenvalues --    0.62712   0.63717   0.64232   0.67665   0.68481
  Beta virt. eigenvalues --    0.68862   0.70592   0.75123   0.76872   0.85135
  Beta virt. eigenvalues --    0.86671   0.96590   1.16314   1.18128   1.22320
  Beta virt. eigenvalues --    1.38333   1.39934   1.51794   1.53671   1.57503
  Beta virt. eigenvalues --    1.69493   1.72425   1.76704   1.78097   1.86871
  Beta virt. eigenvalues --    1.95885   1.97998   2.06095   2.09040   2.24360
  Beta virt. eigenvalues --    2.33918   2.41509   2.54240   2.58311   2.62050
  Beta virt. eigenvalues --    2.72642   2.84074   2.89122   2.97657   3.29450
  Beta virt. eigenvalues --    3.38746   3.46315   3.76363
          Condensed to atoms (all electrons):
               1          2          3          4          5          6
     1  Li   2.053894   0.134687  -0.022535   0.001681  -0.000741   0.000636
     2  O    0.134687   8.160052   0.331613  -0.090901  -0.038718   0.005162
     3  C   -0.022535   0.331613   5.238281   0.363427   0.343189  -0.036050
     4  C    0.001681  -0.090901   0.363427   4.863257  -0.122833   0.367922
     5  H   -0.000741  -0.038718   0.343189  -0.122833   0.857942   0.003020
     6  H    0.000636   0.005162  -0.036050   0.367922   0.003020   0.683699
     7  H    0.000230   0.004091  -0.019208   0.320538   0.007396  -0.025081
     8  H    0.001227   0.007257  -0.038964   0.392048   0.009945  -0.036222
               7          8
     1  Li   0.000230   0.001227
     2  O    0.004091   0.007257
     3  C   -0.019208  -0.038964
     4  C    0.320538   0.392048
     5  H    0.007396   0.009945
     6  H   -0.025081  -0.036222
     7  H    0.761463  -0.023468
     8  H   -0.023468   0.702711
          Atomic-Atomic Spin Densities.
               1          2          3          4          5          6
     1  Li   0.004959   0.007205  -0.013397  -0.000180  -0.000007  -0.000212
     2  O    0.007205   0.538661  -0.285421  -0.000909   0.000363   0.004197
     3  C   -0.013397  -0.285421   1.146422   0.016545   0.002283  -0.023018
     4  C   -0.000180  -0.000909   0.016545  -0.066423   0.006663  -0.021539
     5  H   -0.000007   0.000363   0.002283   0.006663  -0.057071  -0.002361
     6  H   -0.000212   0.004197  -0.023018  -0.021539  -0.002361   0.080307
     7  H   -0.000029   0.000031  -0.001293   0.003340  -0.000515   0.000836
     8  H    0.000380   0.002817  -0.031779   0.013311   0.001365  -0.017986
               7          8
     1  Li  -0.000029   0.000380
     2  O    0.000031   0.002817
     3  C   -0.001293  -0.031779
     4  C    0.003340   0.013311
     5  H   -0.000515   0.001365
     6  H    0.000836  -0.017986
     7  H   -0.000802  -0.001159
     8  H   -0.001159   0.034890
 Mulliken charges and spin densities:
               1          2
     1  Li   0.830920  -0.001281
     2  O   -0.513244   0.266943
     3  C   -0.159753   0.810342
     4  C   -0.095139  -0.049193
     5  H   -0.059201  -0.049280
     6  H    0.036914   0.020224
     7  H   -0.025962   0.000407
     8  H   -0.014535   0.001839
 Sum of Mulliken charges =  -0.00000   1.00000
 Mulliken charges and spin densities with hydrogens summed into heavy atoms:
               1          2
     1  Li   0.830920  -0.001281
     2  O   -0.513244   0.266943
     3  C   -0.218954   0.761061
     4  C   -0.098722  -0.026723
 Electronic spatial extent (au):  <R**2>=            254.7957
 Charge=             -0.0000 electrons
 Dipole moment (field-independent basis, Debye):
    X=             10.2220    Y=              0.4519    Z=              1.3275  Tot=             10.3178
 Quadrupole moment (field-independent basis, Debye-Ang):
   XX=              6.7675   YY=            -23.6981   ZZ=            -22.0262
   XY=              1.9017   XZ=              3.2055   YZ=              0.0110
 Traceless Quadrupole moment (field-independent basis, Debye-Ang):
   XX=             19.7531   YY=            -10.7125   ZZ=             -9.0406
   XY=              1.9017   XZ=              3.2055   YZ=              0.0110
 Octapole moment (field-independent basis, Debye-Ang**2):
  XXX=            118.8861  YYY=             -4.2802  ZZZ=              1.0745  XYY=              6.7055
  XXY=              1.9829  XXZ=              7.8485  XZZ=              6.1650  YZZ=             -2.3999
  YYZ=              0.2830  XYZ=              0.0172
 Hexadecapole moment (field-independent basis, Debye-Ang**3):
 XXXX=             23.0977 YYYY=            -65.6428 ZZZZ=            -32.0938 XXXY=              4.8716
 XXXZ=             26.2310 YYYX=              0.2336 YYYZ=              0.4568 ZZZX=              3.6661
 ZZZY=              0.4235 XXYY=            -48.9767 XXZZ=            -40.2244 YYZZ=            -16.6599
 XXYZ=              0.3690 YYXZ=              1.3292 ZZXY=              1.3250
 N-N= 8.109651942156D+01 E-N=-5.402214254607D+02  KE= 1.595837852113D+02
                          Isotropic Fermi Contact Couplings
        Atom                 a.u.       MegaHertz       Gauss      10(-4) cm-1
     1  Li(7)             -0.00123      -2.14321      -0.76475      -0.71490
     2  O(17)              0.11379     -68.97695     -24.61269     -23.00823
     3  C(13)              0.15983     179.68417      64.11578      59.93619
     4  C(13)             -0.02645     -29.73890     -10.61158      -9.91983
     5  H(1)              -0.01224     -54.72385     -19.52683     -18.25391
     6  H(1)               0.00989      44.22683      15.78123      14.75248
     7  H(1)               0.00040       1.77872       0.63469       0.59332
     8  H(1)               0.00626      27.97078       9.98067       9.33005
 --------------------------------------------------------
       Center         ----  Spin Dipole Couplings  ----
                      3XX-RR        3YY-RR        3ZZ-RR
 --------------------------------------------------------
     1   Atom        0.016202     -0.008746     -0.007456
     2   Atom       -0.653202     -0.653630      1.306831
     3   Atom       -0.382905     -0.386550      0.769455
     4   Atom       -0.005435     -0.004523      0.009958
     5   Atom       -0.051181      0.055927     -0.004746
     6   Atom        0.007175     -0.002132     -0.005043
     7   Atom        0.014995     -0.009559     -0.005437
     8   Atom        0.010947     -0.002393     -0.008553
 --------------------------------------------------------
                        XY            XZ            YZ
 --------------------------------------------------------
     1   Atom        0.002631      0.002002     -0.000285
     2   Atom        0.026836      0.096285     -0.073117
     3   Atom       -0.009707      0.104112     -0.067325
     4   Atom       -0.003013     -0.004202      0.001012
     5   Atom        0.001858      0.003767      0.008439
     6   Atom        0.008409     -0.006463     -0.003311
     7   Atom       -0.002151     -0.001756      0.000132
     8   Atom        0.012761      0.004916      0.001695
 --------------------------------------------------------


 ---------------------------------------------------------------------------------
              Anisotropic Spin Dipole Couplings in Principal Axis System
 ---------------------------------------------------------------------------------

       Atom             a.u.   MegaHertz   Gauss  10(-4) cm-1        Axes

              Baa    -0.0092    -1.902    -0.679    -0.635 -0.1217  0.9465  0.2989
     1 Li(7)  Bbb    -0.0075    -1.547    -0.552    -0.516 -0.0464 -0.3063  0.9508
              Bcc     0.0166     3.450     1.231     1.151  0.9915  0.1018  0.0812
 
              Baa    -0.6875    49.744    17.750    16.593  0.7147 -0.6968 -0.0601
     2 O(17)  Bbb    -0.6267    45.348    16.181    15.127  0.6977  0.7163 -0.0077
              Bcc     1.3142   -95.092   -33.931   -31.719  0.0484 -0.0364  0.9982
 
              Baa    -0.3951   -53.021   -18.919   -17.686  0.7849  0.6187 -0.0344
     3 C(13)  Bbb    -0.3876   -52.014   -18.560   -17.350 -0.6132  0.7835  0.1008
              Bcc     0.7827   105.035    37.479    35.036  0.0893 -0.0580  0.9943
 
              Baa    -0.0084    -1.129    -0.403    -0.377  0.8002  0.5804  0.1511
     4 C(13)  Bbb    -0.0028    -0.377    -0.135    -0.126 -0.5395  0.8066 -0.2415
              Bcc     0.0112     1.506     0.537     0.502 -0.2620  0.1117  0.9586
 
              Baa    -0.0515   -27.477    -9.804    -9.165  0.9969 -0.0111 -0.0783
     5 H(1)   Bbb    -0.0056    -3.005    -1.072    -1.002  0.0761 -0.1377  0.9876
              Bcc     0.0571    30.482    10.877    10.168  0.0217  0.9904  0.1364
 
              Baa    -0.0079    -4.213    -1.503    -1.405  0.4897 -0.2316  0.8406
     6 H(1)   Bbb    -0.0069    -3.675    -1.311    -1.226 -0.3165  0.8511  0.4189
              Bcc     0.0148     7.888     2.815     2.631  0.8124  0.4711 -0.3435
 
              Baa    -0.0097    -5.200    -1.855    -1.734  0.0869  0.9962  0.0048
     7 H(1)   Bbb    -0.0056    -2.980    -1.063    -0.994  0.0837 -0.0121  0.9964
              Bcc     0.0153     8.180     2.919     2.729  0.9927 -0.0862 -0.0845
 
              Baa    -0.0109    -5.829    -2.080    -1.944 -0.5023  0.6346  0.5874
     8 H(1)   Bbb    -0.0087    -4.626    -1.651    -1.543  0.1832 -0.5858  0.7895
              Bcc     0.0196    10.455     3.731     3.487  0.8451  0.5042  0.1779
 

 ---------------------------------------------------------------------------------

 PrsmSu:  requested number of processors reduced to:  30 ShMem   1 Linda.
   1 Symmetry operations used in ECPInt.
 ECPInt:  NShTT=     630 NPrTT=    2273 LenC2=     631 LenP2D=    1999.
 LDataN:  DoStor=T MaxTD1= 5 Len=  102
 D1PCM: PCM CHGder 1st derivatives, ID1Alg=3 FixD1E=F DoIter=F DoCFld=F I1PDM=0.
 CoulSu:  requested number of processors reduced to:  30 ShMem   1 Linda.
 CoulSu:  requested number of processors reduced to:  30 ShMem   1 Linda.
 Calling FoFJK, ICntrl=      2127 FMM=F ISym2X=0 I1Cent= 0 IOpClX= 1 NMat=1 NMatS=1 NMatT=0.
 ***** Axes restored to original set *****
 -------------------------------------------------------------------
 Center     Atomic                   Forces (Hartrees/Bohr)
 Number     Number              X              Y              Z
 -------------------------------------------------------------------
      1        3          -0.011929275   -0.001515366    0.000259849
      2        8           0.109481020   -0.095661620   -0.003484829
      3        6          -0.134962768    0.125929199    0.008909376
      4        6           0.088404072    0.189222061    0.074922812
      5        1           0.001429808   -0.045906263    0.009196589
      6        1          -0.007178223   -0.017270785   -0.000273779
      7        1           0.023654057   -0.051050667    0.011643064
      8        1          -0.068898690   -0.103746559   -0.101173083
 -------------------------------------------------------------------
 Cartesian Forces:  Max     0.189222061 RMS     0.075352434

 GradGradGradGradGradGradGradGradGradGradGradGradGradGradGradGradGradGrad
 Berny optimization.
 FormGI is forming the generalized inverse of G from B-inverse, IUseBI=4.
 Internal  Forces:  Max     0.157926127 RMS     0.045968869
 Search for a local minimum.
 Step number   1 out of a maximum of   10
 All quantities printed in internal units (Hartrees-Bohrs-Radians)
 Mixed Optimization -- RFO/linear search
 Second derivative matrix not updated -- first step.
 ITU=  0
     Eigenvalues ---    0.00230   0.01598   0.04240   0.06510   0.08489
     Eigenvalues ---    0.09992   0.15964   0.16000   0.16000   0.16000
     Eigenvalues ---    0.19401   0.21290   0.22007   0.23420   0.25000
     Eigenvalues ---    0.34629   0.58622   1.01206
 RFO step:  Lambda=-8.76381464D-02 EMin= 2.30000000D-03
 Linear search not attempted -- first point.
 Maximum step size (   0.300) exceeded in Quadratic search.
    -- Step size scaled by   0.700
 Iteration  1 RMS(Cart)=  0.04659138 RMS(Int)=  0.00186050
 Iteration  2 RMS(Cart)=  0.00207804 RMS(Int)=  0.00035538
 Iteration  3 RMS(Cart)=  0.00000469 RMS(Int)=  0.00035535
 Iteration  4 RMS(Cart)=  0.00000000 RMS(Int)=  0.00035535
 Variable       Old X    -DE/DX   Delta X   Delta X   Delta X     New X
                                 (Linear)    (Quad)   (Total)
    R1        3.67397  -0.01194   0.00000  -0.04454  -0.04454   3.62943
    R2        2.28160   0.13594   0.00000   0.08649   0.08649   2.36808
    R3        3.16029  -0.04106   0.00000  -0.10201  -0.10201   3.05828
    R4        2.30103  -0.04559   0.00000  -0.09911  -0.09911   2.20191
    R5        2.06281   0.00319   0.00000   0.00515   0.00515   2.06796
    R6        2.36397  -0.05730   0.00000  -0.13338  -0.13338   2.23058
    R7        1.78747   0.15793   0.00000   0.16397   0.16397   1.95145
    A1        2.18596   0.00487   0.00000   0.01010   0.01010   2.19606
    A2        2.00426   0.02236   0.00000   0.05059   0.05054   2.05480
    A3        2.30032  -0.02262   0.00000  -0.05830  -0.05832   2.24200
    A4        1.97505   0.00008   0.00000   0.00612   0.00606   1.98111
    A5        1.95468   0.00313   0.00000   0.00318   0.00294   1.95762
    A6        1.80466   0.00807   0.00000   0.03123   0.03064   1.83530
    A7        1.81275   0.01394   0.00000   0.03443   0.03394   1.84669
    A8        1.82448  -0.00017   0.00000   0.00822   0.00784   1.83232
    A9        2.24619  -0.02368   0.00000  -0.08034  -0.08048   2.16571
   A10        1.76781   0.00436   0.00000   0.02720   0.02604   1.79386
    D1       -2.85219   0.00099   0.00000   0.01000   0.00969  -2.84250
    D2        0.19105  -0.00107   0.00000  -0.01045  -0.01014   0.18091
    D3        1.26594  -0.00878   0.00000  -0.04270  -0.04294   1.22300
    D4       -3.06262  -0.00337   0.00000  -0.01524  -0.01572  -3.07834
    D5       -1.22253   0.00831   0.00000   0.03496   0.03532  -1.18722
    D6       -1.79595  -0.00550   0.00000  -0.02178  -0.02178  -1.81773
    D7        0.15867  -0.00009   0.00000   0.00568   0.00544   0.16411
    D8        1.99876   0.01159   0.00000   0.05588   0.05647   2.05523
         Item               Value     Threshold  Converged?
 Maximum Force            0.157926     0.000450     NO 
 RMS     Force            0.045969     0.000300     NO 
 Maximum Displacement     0.097394     0.001800     NO 
 RMS     Displacement     0.046777     0.001200     NO 
 Predicted change in Energy=-4.412687D-02
 GradGradGradGradGradGradGradGradGradGradGradGradGradGradGradGradGradGrad

                          Input orientation:                          
 ---------------------------------------------------------------------
 Center     Atomic      Atomic             Coordinates (Angstroms)
 Number     Number       Type             X           Y           Z
 ---------------------------------------------------------------------
      1          3           0        2.482302   -0.117872    4.271585
      2          8           0        0.563296   -0.179732    4.319931
      3          6           0       -0.202533    0.812122    4.329001
      4          6           0       -1.735248    0.575907    4.791730
      5          1           0        0.060604    1.932531    4.146959
      6          1           0       -1.814980    0.360989    5.861767
      7          1           0       -2.264936    1.621209    4.650101
      8          1           0       -2.166747   -0.000954    4.051846
 ---------------------------------------------------------------------
                    Distance matrix (angstroms):
                    1          2          3          4          5
     1  Li   0.000000
     2  O    1.920611   0.000000
     3  C    2.841922   1.253137   0.000000
     4  C    4.305765   2.465135   1.618374   0.000000
     5  H    3.175580   2.178136   1.165203   2.341206   0.000000
     6  H    4.607019   2.885452   2.269996   1.094316   2.987998
     7  H    5.069906   3.369169   2.238579   1.180375   2.399627
     8  H    4.655707   2.748994   2.143839   1.032660   2.951017
                    6          7          8
     6  H    0.000000
     7  H    1.805201   0.000000
     8  H    1.878978   1.731751   0.000000
 Stoichiometry    C2H4LiO(2)
 Framework group  C1[X(C2H4LiO)]
 Deg. of freedom    18
 Full point group                 C1      NOp   1
 Largest Abelian subgroup         C1      NOp   1
 Largest concise Abelian subgroup C1      NOp   1
                         Standard orientation:                         
 ---------------------------------------------------------------------
 Center     Atomic      Atomic             Coordinates (Angstroms)
 Number     Number       Type             X           Y           Z
 ---------------------------------------------------------------------
      1          3           0        2.744577    0.080186    0.208047
      2          8           0        0.901529   -0.361336   -0.103367
      3          6           0       -0.060997    0.440268   -0.066943
      4          6           0       -1.551048   -0.177589    0.063946
      5          1           0       -0.033357    1.603631   -0.007598
      6          1           0       -1.730962   -0.616085    1.050293
      7          1           0       -2.276607    0.751661    0.006121
      8          1           0       -1.732765   -0.665155   -0.828044
 ---------------------------------------------------------------------
 Rotational constants (GHZ):          45.2055508           4.7235307           4.4552730
 Standard basis: def2SVP (5D, 7F)
 There are    74 symmetry adapted cartesian basis functions of A   symmetry.
 There are    71 symmetry adapted basis functions of A   symmetry.
    71 basis functions,   119 primitive gaussians,    74 cartesian basis functions
    14 alpha electrons       13 beta electrons
       nuclear repulsion energy        80.7294716476 Hartrees.
 NAtoms=    8 NActive=    8 NUniq=    8 SFac= 1.00D+00 NAtFMM=   60 NAOKFM=F Big=F
 Integral buffers will be    131072 words long.
 Raffenetti 2 integral format.
 Two-electron integral symmetry is turned on.
 ------------------------------------------------------------------------------
 Polarizable Continuum Model (PCM)
 =================================
 Model                : PCM.
 Atomic radii         : UFF (Universal Force Field).
 Polarization charges : Total charges.
 Charge compensation  : None.
 Solution method      : On-the-fly selection.
 Cavity type          : Scaled VdW (van der Waals Surface) (Alpha=1.100).
 Cavity algorithm     : GePol (No added spheres)
                        Default sphere list used, NSphG=    8.
                        Lebedev-Laikov grids with approx.  5.0 points / Ang**2.
                        Smoothing algorithm: York/Karplus (Gamma=1.0000).
                        Polarization charges: spherical gaussians, with
                                              point-specific exponents (IZeta= 3).
                        Self-potential: point-specific (ISelfS= 7).
                        Self-field    : sphere-specific E.n sum rule (ISelfD= 2).
 1st derivatives      : Analytical E(r).r(x)/FMM algorithm (CHGder, D1EAlg=3).
                        Cavity 1st derivative terms included.
 Solvent              : Water, Eps=  78.355300 Eps(inf)=   1.777849
 ------------------------------------------------------------------------------
 Spheres list:
 ISph  on   Nord     Re0    Alpha      Xe            Ye            Ze
    1  Li      1    1.2255  1.100      2.744577      0.080186      0.208047
    2   O      2    1.7500  1.100      0.901529     -0.361336     -0.103367
    3   C      3    1.9255  1.100     -0.060997      0.440268     -0.066943
    4   C      4    1.9255  1.100     -1.551048     -0.177589      0.063946
    5   H      5    1.4430  1.100     -0.033357      1.603631     -0.007598
    6   H      6    1.4430  1.100     -1.730962     -0.616085      1.050293
    7   H      7    1.4430  1.100     -2.276607      0.751661      0.006121
    8   H      8    1.4430  1.100     -1.732765     -0.665155     -0.828044
 ------------------------------------------------------------------------------
 One-electron integrals computed using PRISM.
 PrsmSu:  requested number of processors reduced to:  30 ShMem   1 Linda.
   1 Symmetry operations used in ECPInt.
 ECPInt:  NShTT=     630 NPrTT=    2273 LenC2=     631 LenP2D=    1994.
 LDataN:  DoStor=T MaxTD1= 4 Len=   56
 NBasis=    71 RedAO= T EigKep=  6.06D-03  NBF=    71
 NBsUse=    71 1.00D-06 EigRej= -1.00D+00 NBFU=    71
 Initial guess from the checkpoint file:  "/home/zz1/proj/gauss/new/chk/Li-VUMCAH-2/65.chk"
 B after Tr=    -0.000000   -0.000000    0.000000
         Rot=    0.999839    0.017725   -0.000493   -0.002749 Ang=   2.06 deg.
 Initial guess <Sx>= 0.0000 <Sy>= 0.0000 <Sz>= 0.5000 <S**2>= 0.7546 S= 0.5023
 ExpMin= 2.10D-02 ExpMax= 2.27D+03 ExpMxC= 3.41D+02 IAcc=3 IRadAn=         5 AccDes= 0.00D+00
 Harris functional with IExCor= 1009 and IRadAn=       5 diagonalized for initial guess.
 HarFok:  IExCor= 1009 AccDes= 0.00D+00 IRadAn=         5 IDoV= 1 UseB2=F ITyADJ=14
 ICtDFT=  3500011 ScaDFX=  1.000000  1.000000  1.000000  1.000000
 FoFCou: FMM=F IPFlag=           0 FMFlag=      100000 FMFlg1=           0
         NFxFlg=           0 DoJE=T BraDBF=F KetDBF=T FulRan=T
         wScrn=  0.000000 ICntrl=       500 IOpCl=  0 I1Cent=   200000004 NGrid=           0
         NMat0=    1 NMatS0=      1 NMatT0=    0 NMatD0=    1 NMtDS0=    0 NMtDT0=    0
 Petite list used in FoFCou.
 Keep R1 and R2 ints in memory in canonical form, NReq=50497283.
 Requested convergence on RMS density matrix=1.00D-08 within 128 cycles.
 Requested convergence on MAX density matrix=1.00D-06.
 Requested convergence on             energy=1.00D-06.
 No special actions if energy rises.
 CoulSu:  requested number of processors reduced to:  46 ShMem   1 Linda.
 Inv3:  Mode=1 IEnd=     1978032.
 Iteration    1 A*A^-1 deviation from unit magnitude is 3.00D-15 for     31.
 Iteration    1 A*A^-1 deviation from orthogonality  is 1.55D-15 for    602    343.
 Iteration    1 A^-1*A deviation from unit magnitude is 2.55D-15 for     11.
 Iteration    1 A^-1*A deviation from orthogonality  is 2.53D-15 for    661    581.
 CoulSu:  requested number of processors reduced to:  46 ShMem   1 Linda.
 CoulSu:  requested number of processors reduced to:  46 ShMem   1 Linda.
 CoulSu:  requested number of processors reduced to:  47 ShMem   1 Linda.
 CoulSu:  requested number of processors reduced to:  44 ShMem   1 Linda.
 Error on total polarization charges =  0.01270
 SCF Done:  E(UM062X) =  -161.162985454     A.U. after   14 cycles
            NFock= 14  Conv=0.53D-08     -V/T= 2.0108
 <Sx>= 0.0000 <Sy>= 0.0000 <Sz>= 0.5000 <S**2>= 0.7547 S= 0.5024
 <L.S>=  0.00000000000    
 Annihilation of the first spin contaminant:
 S**2 before annihilation     0.7547,   after     0.7500

 **********************************************************************

            Population analysis using the SCF density.

 **********************************************************************

 Orbital symmetries:
 Alpha Orbitals:
       Occupied  (A) (A) (A) (A) (A) (A) (A) (A) (A) (A) (A) (A)
                 (A) (A)
       Virtual   (A) (A) (A) (A) (A) (A) (A) (A) (A) (A) (A) (A)
                 (A) (A) (A) (A) (A) (A) (A) (A) (A) (A) (A) (A)
                 (A) (A) (A) (A) (A) (A) (A) (A) (A) (A) (A) (A)
                 (A) (A) (A) (A) (A) (A) (A) (A) (A) (A) (A) (A)
                 (A) (A) (A) (A) (A) (A) (A) (A) (A)
 Beta  Orbitals:
       Occupied  (A) (A) (A) (A) (A) (A) (A) (A) (A) (A) (A) (A)
                 (A)
       Virtual   (A) (A) (A) (A) (A) (A) (A) (A) (A) (A) (A) (A)
                 (A) (A) (A) (A) (A) (A) (A) (A) (A) (A) (A) (A)
                 (A) (A) (A) (A) (A) (A) (A) (A) (A) (A) (A) (A)
                 (A) (A) (A) (A) (A) (A) (A) (A) (A) (A) (A) (A)
                 (A) (A) (A) (A) (A) (A) (A) (A) (A) (A)
 The electronic state is 2-A.
 Alpha  occ. eigenvalues --  -19.54189 -10.52941 -10.51830  -2.09239  -1.05528
 Alpha  occ. eigenvalues --   -0.75900  -0.58652  -0.48276  -0.47485  -0.42672
 Alpha  occ. eigenvalues --   -0.39855  -0.38706  -0.26464  -0.11717
 Alpha virt. eigenvalues --    0.00241   0.11107   0.11740   0.13875   0.14543
 Alpha virt. eigenvalues --    0.16471   0.19826   0.20587   0.21504   0.29516
 Alpha virt. eigenvalues --    0.39226   0.48762   0.56723   0.58054   0.61337
 Alpha virt. eigenvalues --    0.63444   0.64777   0.67607   0.68437   0.70241
 Alpha virt. eigenvalues --    0.71687   0.75101   0.76559   0.79665   0.80223
 Alpha virt. eigenvalues --    0.94682   1.14129   1.17426   1.20998   1.37735
 Alpha virt. eigenvalues --    1.40502   1.49917   1.54477   1.57441   1.68215
 Alpha virt. eigenvalues --    1.75042   1.77913   1.81120   1.87092   1.91200
 Alpha virt. eigenvalues --    1.98256   2.06959   2.08232   2.21887   2.30665
 Alpha virt. eigenvalues --    2.38648   2.53349   2.60551   2.63380   2.73600
 Alpha virt. eigenvalues --    2.81804   2.87633   2.92905   3.11955   3.21715
 Alpha virt. eigenvalues --    3.41102   3.69017
  Beta  occ. eigenvalues --  -19.53479 -10.52314 -10.51886  -2.09242  -1.03455
  Beta  occ. eigenvalues --   -0.75252  -0.56099  -0.47133  -0.46302  -0.41306
  Beta  occ. eigenvalues --   -0.38566  -0.33653  -0.25774
  Beta virt. eigenvalues --    0.00072   0.10129   0.10448   0.11804   0.13394
  Beta virt. eigenvalues --    0.14296   0.16435   0.19709   0.20151   0.21695
  Beta virt. eigenvalues --    0.30744   0.40053   0.48986   0.58638   0.59678
  Beta virt. eigenvalues --    0.62676   0.63883   0.65052   0.68199   0.69566
  Beta virt. eigenvalues --    0.70432   0.71649   0.75114   0.77595   0.80039
  Beta virt. eigenvalues --    0.82002   0.94580   1.16942   1.18665   1.21786
  Beta virt. eigenvalues --    1.37895   1.41111   1.51804   1.54873   1.57551
  Beta virt. eigenvalues --    1.70211   1.76128   1.79484   1.81518   1.87835
  Beta virt. eigenvalues --    1.92846   1.99960   2.07948   2.11391   2.23122
  Beta virt. eigenvalues --    2.32744   2.39622   2.53829   2.62930   2.65583
  Beta virt. eigenvalues --    2.74585   2.83947   2.89936   2.93295   3.12290
  Beta virt. eigenvalues --    3.24400   3.43332   3.70461
          Condensed to atoms (all electrons):
               1          2          3          4          5          6
     1  Li   2.057219   0.141446  -0.022427   0.001017  -0.000676   0.000884
     2  O    0.141446   8.203793   0.330723  -0.084445  -0.040374   0.004935
     3  C   -0.022427   0.330723   5.184983   0.372231   0.366286  -0.037793
     4  C    0.001017  -0.084445   0.372231   4.858753  -0.121402   0.363446
     5  H   -0.000676  -0.040374   0.366286  -0.121402   0.828748   0.003320
     6  H    0.000884   0.004935  -0.037793   0.363446   0.003320   0.698693
     7  H    0.000203   0.004090  -0.015611   0.334659   0.004474  -0.025078
     8  H    0.001201   0.006241  -0.045708   0.384824   0.009753  -0.037393
               7          8
     1  Li   0.000203   0.001201
     2  O    0.004090   0.006241
     3  C   -0.015611  -0.045708
     4  C    0.334659   0.384824
     5  H    0.004474   0.009753
     6  H   -0.025078  -0.037393
     7  H    0.728643  -0.024242
     8  H   -0.024242   0.690003
          Atomic-Atomic Spin Densities.
               1          2          3          4          5          6
     1  Li   0.004064   0.006336  -0.012446  -0.000222  -0.000193   0.000021
     2  O    0.006336   0.499546  -0.253565  -0.000858   0.000582   0.004195
     3  C   -0.012446  -0.253565   1.111398   0.021651   0.004307  -0.026352
     4  C   -0.000222  -0.000858   0.021651  -0.069985   0.006314  -0.021381
     5  H   -0.000193   0.000582   0.004307   0.006314  -0.057316  -0.002478
     6  H    0.000021   0.004195  -0.026352  -0.021381  -0.002478   0.094252
     7  H   -0.000026   0.000023  -0.001723   0.003695  -0.000474   0.000716
     8  H    0.000284   0.003207  -0.037311   0.010425   0.001473  -0.023522
               7          8
     1  Li  -0.000026   0.000284
     2  O    0.000023   0.003207
     3  C   -0.001723  -0.037311
     4  C    0.003695   0.010425
     5  H   -0.000474   0.001473
     6  H    0.000716  -0.023522
     7  H   -0.001271  -0.001024
     8  H   -0.001024   0.056000
 Mulliken charges and spin densities:
               1          2
     1  Li   0.821134  -0.002181
     2  O   -0.566409   0.259466
     3  C   -0.132683   0.805961
     4  C   -0.109082  -0.050361
     5  H   -0.050129  -0.047785
     6  H    0.028987   0.025451
     7  H   -0.007139  -0.000084
     8  H    0.015321   0.009533
 Sum of Mulliken charges =  -0.00000   1.00000
 Mulliken charges and spin densities with hydrogens summed into heavy atoms:
               1          2
     1  Li   0.821134  -0.002181
     2  O   -0.566409   0.259466
     3  C   -0.182812   0.758176
     4  C   -0.071913  -0.015461
 Electronic spatial extent (au):  <R**2>=            254.2166
 Charge=             -0.0000 electrons
 Dipole moment (field-independent basis, Debye):
    X=              9.6177    Y=              1.0609    Z=              1.3356  Tot=              9.7678
 Quadrupole moment (field-independent basis, Debye-Ang):
   XX=              6.7999   YY=            -23.2632   ZZ=            -22.0482
   XY=              2.3307   XZ=              3.1220   YZ=              0.1285
 Traceless Quadrupole moment (field-independent basis, Debye-Ang):
   XX=             19.6371   YY=            -10.4260   ZZ=             -9.2111
   XY=              2.3307   XZ=              3.1220   YZ=              0.1285
 Octapole moment (field-independent basis, Debye-Ang**2):
  XXX=            114.9774  YYY=             -2.3823  ZZZ=              1.3358  XYY=              6.3294
  XXY=              4.5340  XXZ=              7.7055  XZZ=              6.0089  YZZ=             -1.8546
  YYZ=              0.3434  XYZ=              0.0455
 Hexadecapole moment (field-independent basis, Debye-Ang**3):
 XXXX=             24.4871 YYYY=            -60.8674 ZZZZ=            -32.8377 XXXY=              8.2334
 XXXZ=             25.3717 YYYX=              0.4101 YYYZ=              0.5807 ZZZX=              3.4376
 ZZZY=              0.6465 XXYY=            -47.6749 XXZZ=            -40.6446 YYZZ=            -16.0035
 XXYZ=              0.8991 YYXZ=              1.3499 ZZXY=              1.3056
 N-N= 8.072947164757D+01 E-N=-5.395445305817D+02  KE= 1.594353249255D+02
                          Isotropic Fermi Contact Couplings
        Atom                 a.u.       MegaHertz       Gauss      10(-4) cm-1
     1  Li(7)             -0.00127      -2.20803      -0.78788      -0.73652
     2  O(17)              0.11493     -69.67226     -24.86080     -23.24016
     3  C(13)              0.15860     178.29626      63.62054      59.47323
     4  C(13)             -0.03139     -35.29274     -12.59333     -11.77239
     5  H(1)              -0.01207     -53.95211     -19.25145     -17.99649
     6  H(1)               0.01172      52.37350      18.68817      17.46992
     7  H(1)               0.00032       1.43781       0.51305       0.47960
     8  H(1)               0.00843      37.70024      13.45238      12.57545
 --------------------------------------------------------
       Center         ----  Spin Dipole Couplings  ----
                      3XX-RR        3YY-RR        3ZZ-RR
 --------------------------------------------------------
     1   Atom        0.015951     -0.008575     -0.007376
     2   Atom       -0.640358     -0.634172      1.274530
     3   Atom       -0.397587     -0.400732      0.798319
     4   Atom       -0.001307     -0.003883      0.005190
     5   Atom       -0.055339      0.059526     -0.004187
     6   Atom        0.007172     -0.002656     -0.004516
     7   Atom        0.015897     -0.010122     -0.005775
     8   Atom        0.009940     -0.002045     -0.007895
 --------------------------------------------------------
                        XY            XZ            YZ
 --------------------------------------------------------
     1   Atom        0.003247      0.001935     -0.000179
     2   Atom        0.034123      0.085980     -0.018583
     3   Atom       -0.004470      0.097696     -0.028904
     4   Atom        0.000322     -0.003009      0.001087
     5   Atom        0.004510      0.003893      0.006549
     6   Atom        0.008548     -0.007016     -0.003658
     7   Atom       -0.002109     -0.001875      0.000265
     8   Atom        0.012466      0.004968      0.002184
 --------------------------------------------------------


 ---------------------------------------------------------------------------------
              Anisotropic Spin Dipole Couplings in Principal Axis System
 ---------------------------------------------------------------------------------

       Atom             a.u.   MegaHertz   Gauss  10(-4) cm-1        Axes

              Baa    -0.0091    -1.890    -0.674    -0.630 -0.1437  0.9552  0.2586
     1 Li(7)  Bbb    -0.0074    -1.537    -0.548    -0.513 -0.0426 -0.2670  0.9627
              Bcc     0.0165     3.427     1.223     1.143  0.9887  0.1273  0.0791
 
              Baa    -0.6745    48.809    17.416    16.281  0.7540 -0.6557 -0.0395
     2 O(17)  Bbb    -0.6040    43.705    15.595    14.578  0.6553  0.7550 -0.0225
              Bcc     1.2785   -92.514   -33.011   -30.859  0.0446 -0.0089  0.9990
 
              Baa    -0.4064   -54.537   -19.460   -18.192  0.9180  0.3912 -0.0651
     3 C(13)  Bbb    -0.4005   -53.748   -19.179   -17.928 -0.3882  0.9200  0.0538
              Bcc     0.8070   108.285    38.639    36.120  0.0809 -0.0241  0.9964
 
              Baa    -0.0042    -0.568    -0.203    -0.190 -0.3147  0.9263 -0.2073
     4 C(13)  Bbb    -0.0022    -0.297    -0.106    -0.099  0.8794  0.3667  0.3036
              Bcc     0.0064     0.865     0.309     0.289 -0.3573  0.0868  0.9300
 
              Baa    -0.0558   -29.758   -10.618    -9.926  0.9969 -0.0350 -0.0708
     5 H(1)   Bbb    -0.0046    -2.468    -0.881    -0.823  0.0667 -0.1060  0.9921
              Bcc     0.0604    32.226    11.499    10.749  0.0422  0.9938  0.1033
 
              Baa    -0.0080    -4.249    -1.516    -1.417  0.5704 -0.4412  0.6928
     6 H(1)   Bbb    -0.0073    -3.902    -1.392    -1.302 -0.1551  0.7704  0.6183
              Bcc     0.0153     8.151     2.908     2.719  0.8066  0.4602 -0.3710
 
              Baa    -0.0103    -5.493    -1.960    -1.832  0.0784  0.9966 -0.0260
     7 H(1)   Bbb    -0.0059    -3.166    -1.130    -1.056  0.0874  0.0191  0.9960
              Bcc     0.0162     8.659     3.090     2.888  0.9931 -0.0804 -0.0856
 
              Baa    -0.0103    -5.513    -1.967    -1.839 -0.5408  0.6846  0.4887
     8 H(1)   Bbb    -0.0085    -4.548    -1.623    -1.517  0.1180 -0.5135  0.8499
              Bcc     0.0189    10.062     3.590     3.356  0.8329  0.5173  0.1969
 

 ---------------------------------------------------------------------------------

 PrsmSu:  requested number of processors reduced to:  30 ShMem   1 Linda.
   1 Symmetry operations used in ECPInt.
 ECPInt:  NShTT=     630 NPrTT=    2273 LenC2=     631 LenP2D=    1994.
 LDataN:  DoStor=T MaxTD1= 5 Len=  102
 D1PCM: PCM CHGder 1st derivatives, ID1Alg=3 FixD1E=F DoIter=F DoCFld=F I1PDM=0.
 CoulSu:  requested number of processors reduced to:  30 ShMem   1 Linda.
 CoulSu:  requested number of processors reduced to:  30 ShMem   1 Linda.
 Calling FoFJK, ICntrl=      2127 FMM=F ISym2X=0 I1Cent= 0 IOpClX= 1 NMat=1 NMatS=1 NMatT=0.
 ***** Axes restored to original set *****
 -------------------------------------------------------------------
 Center     Atomic                   Forces (Hartrees/Bohr)
 Number     Number              X              Y              Z
 -------------------------------------------------------------------
      1        3          -0.012211022   -0.001283495    0.000232768
      2        8           0.062722625   -0.043101867   -0.001978562
      3        6          -0.084202936    0.064022164    0.008518526
      4        6           0.050841532    0.102881736    0.002002777
      5        1           0.002904281   -0.028862827    0.005649727
      6        1          -0.006940597   -0.015852807    0.000595527
      7        1           0.015622654   -0.032569608    0.007199802
      8        1          -0.028736536   -0.045233296   -0.022220565
 -------------------------------------------------------------------
 Cartesian Forces:  Max     0.102881736 RMS     0.038878667

 GradGradGradGradGradGradGradGradGradGradGradGradGradGradGradGradGradGrad
 Berny optimization.
 Using GEDIIS/GDIIS optimizer.
 FormGI is forming the generalized inverse of G from B-inverse, IUseBI=4.
 Internal  Forces:  Max     0.066047920 RMS     0.021870991
 Search for a local minimum.
 Step number   2 out of a maximum of   10
 All quantities printed in internal units (Hartrees-Bohrs-Radians)
 Mixed Optimization -- RFO/linear search
 Update second derivatives using D2CorX and points    1    2
 DE= -4.57D-02 DEPred=-4.41D-02 R= 1.04D+00
 TightC=F SS=  1.41D+00  RLast= 3.12D-01 DXNew= 5.0454D-01 9.3452D-01
 Trust test= 1.04D+00 RLast= 3.12D-01 DXMaxT set to 5.05D-01
 ITU=  1  0
 Use linear search instead of GDIIS.
     Eigenvalues ---    0.00230   0.01518   0.04240   0.06398   0.08168
     Eigenvalues ---    0.09808   0.14517   0.15967   0.16000   0.16008
     Eigenvalues ---    0.17973   0.20918   0.22126   0.23180   0.24994
     Eigenvalues ---    0.34606   0.68807   0.95629
 RFO step:  Lambda=-3.50037313D-02 EMin= 2.30005010D-03
 Quartic linear search produced a step of  1.46347.
 Iteration  1 RMS(Cart)=  0.09215198 RMS(Int)=  0.04523202
 Iteration  2 RMS(Cart)=  0.04979320 RMS(Int)=  0.00559335
 Iteration  3 RMS(Cart)=  0.00082333 RMS(Int)=  0.00552035
 Iteration  4 RMS(Cart)=  0.00000492 RMS(Int)=  0.00552035
 Iteration  5 RMS(Cart)=  0.00000008 RMS(Int)=  0.00552035
 Variable       Old X    -DE/DX   Delta X   Delta X   Delta X     New X
                                 (Linear)    (Quad)   (Total)
    R1        3.62943  -0.01226  -0.06518  -0.14110  -0.20628   3.42315
    R2        2.36808   0.06605   0.12657  -0.00560   0.12097   2.48906
    R3        3.05828  -0.03407  -0.14928  -0.17651  -0.32579   2.73249
    R4        2.20191  -0.02799  -0.14505  -0.07407  -0.21912   1.98279
    R5        2.06796   0.00420   0.00753   0.01701   0.02454   2.09250
    R6        2.23058  -0.03670  -0.19520  -0.11982  -0.31502   1.91557
    R7        1.95145   0.05319   0.23997  -0.08891   0.15105   2.10250
    A1        2.19606   0.00337   0.01478   0.01044   0.02522   2.22128
    A2        2.05480   0.01117   0.07397   0.01411   0.08676   2.14156
    A3        2.24200  -0.01550  -0.08535  -0.07616  -0.16220   2.07980
    A4        1.98111   0.00417   0.00887   0.05455   0.06150   2.04260
    A5        1.95762   0.00333   0.00430   0.00266   0.00388   1.96150
    A6        1.83530   0.00489   0.04484   0.05863   0.09180   1.92710
    A7        1.84669   0.01306   0.04968   0.07164   0.11148   1.95817
    A8        1.83232   0.00039   0.01147   0.04325   0.05041   1.88273
    A9        2.16571  -0.02145  -0.11778  -0.20524  -0.32451   1.84120
   A10        1.79386   0.00290   0.03811   0.07397   0.09506   1.88892
    D1       -2.84250   0.00053   0.01418   0.03710   0.04589  -2.79661
    D2        0.18091  -0.00072  -0.01484  -0.04222  -0.05168   0.12923
    D3        1.22300  -0.00746  -0.06283  -0.12116  -0.18686   1.03614
    D4       -3.07834  -0.00268  -0.02300  -0.03594  -0.06568   3.13916
    D5       -1.18722   0.00738   0.05168   0.09582   0.15185  -1.03537
    D6       -1.81773  -0.00496  -0.03187  -0.04503  -0.07627  -1.89400
    D7        0.16411  -0.00017   0.00796   0.04018   0.04491   0.20902
    D8        2.05523   0.00989   0.08264   0.17195   0.26244   2.31768
         Item               Value     Threshold  Converged?
 Maximum Force            0.066048     0.000450     NO 
 RMS     Force            0.021871     0.000300     NO 
 Maximum Displacement     0.222380     0.001800     NO 
 RMS     Displacement     0.117913     0.001200     NO 
 Predicted change in Energy=-2.483520D-02
 GradGradGradGradGradGradGradGradGradGradGradGradGradGradGradGradGradGrad

                          Input orientation:                          
 ---------------------------------------------------------------------
 Center     Atomic      Atomic             Coordinates (Angstroms)
 Number     Number       Type             X           Y           Z
 ---------------------------------------------------------------------
      1          3           0        2.373094   -0.057303    4.307542
      2          8           0        0.564504   -0.158932    4.313526
      3          6           0       -0.290672    0.842846    4.316296
      4          6           0       -1.667429    0.693586    4.732346
      5          1           0        0.068011    1.821638    4.196981
      6          1           0       -1.756014    0.337433    5.777057
      7          1           0       -2.155720    1.579201    4.663126
      8          1           0       -2.214015   -0.054267    4.116046
 ---------------------------------------------------------------------
                    Distance matrix (angstroms):
                    1          2          3          4          5
     1  Li   0.000000
     2  O    1.811453   0.000000
     3  C    2.811760   1.317154   0.000000
     4  C    4.131600   2.425638   1.445972   0.000000
     5  H    2.975913   2.045177   1.049249   2.137958   0.000000
     6  H    4.400549   2.788030   2.129905   1.107301   2.833121
     7  H    4.828535   3.246991   2.034924   1.013674   2.284961
     8  H    4.591106   2.787494   2.131704   1.112594   2.955201
                    6          7          8
     6  H    0.000000
     7  H    1.715400   0.000000
     8  H    1.766961   1.723634   0.000000
 Stoichiometry    C2H4LiO(2)
 Framework group  C1[X(C2H4LiO)]
 Deg. of freedom    18
 Full point group                 C1      NOp   1
 Largest Abelian subgroup         C1      NOp   1
 Largest concise Abelian subgroup C1      NOp   1
                         Standard orientation:                         
 ---------------------------------------------------------------------
 Center     Atomic      Atomic             Coordinates (Angstroms)
 Number     Number       Type             X           Y           Z
 ---------------------------------------------------------------------
      1          3           0        2.638761    0.134158    0.208476
      2          8           0        0.922803   -0.362268   -0.092208
      3          6           0       -0.142288    0.412609   -0.098489
      4          6           0       -1.483628   -0.101821    0.065843
      5          1           0       -0.018596    1.452306   -0.030268
      6          1           0       -1.615988   -0.634903    1.027311
      7          1           0       -2.158543    0.653814    0.033612
      8          1           0       -1.750081   -0.840274   -0.722545
 ---------------------------------------------------------------------
 Rotational constants (GHZ):          49.3140930           5.0317118           4.7537883
 Standard basis: def2SVP (5D, 7F)
 There are    74 symmetry adapted cartesian basis functions of A   symmetry.
 There are    71 symmetry adapted basis functions of A   symmetry.
    71 basis functions,   119 primitive gaussians,    74 cartesian basis functions
    14 alpha electrons       13 beta electrons
       nuclear repulsion energy        83.0320581976 Hartrees.
 NAtoms=    8 NActive=    8 NUniq=    8 SFac= 1.00D+00 NAtFMM=   60 NAOKFM=F Big=F
 Integral buffers will be    131072 words long.
 Raffenetti 2 integral format.
 Two-electron integral symmetry is turned on.
 ------------------------------------------------------------------------------
 Polarizable Continuum Model (PCM)
 =================================
 Model                : PCM.
 Atomic radii         : UFF (Universal Force Field).
 Polarization charges : Total charges.
 Charge compensation  : None.
 Solution method      : On-the-fly selection.
 Cavity type          : Scaled VdW (van der Waals Surface) (Alpha=1.100).
 Cavity algorithm     : GePol (No added spheres)
                        Default sphere list used, NSphG=    8.
                        Lebedev-Laikov grids with approx.  5.0 points / Ang**2.
                        Smoothing algorithm: York/Karplus (Gamma=1.0000).
                        Polarization charges: spherical gaussians, with
                                              point-specific exponents (IZeta= 3).
                        Self-potential: point-specific (ISelfS= 7).
                        Self-field    : sphere-specific E.n sum rule (ISelfD= 2).
 1st derivatives      : Analytical E(r).r(x)/FMM algorithm (CHGder, D1EAlg=3).
                        Cavity 1st derivative terms included.
 Solvent              : Water, Eps=  78.355300 Eps(inf)=   1.777849
 ------------------------------------------------------------------------------
 Spheres list:
 ISph  on   Nord     Re0    Alpha      Xe            Ye            Ze
    1  Li      1    1.2255  1.100      2.638761      0.134158      0.208476
    2   O      2    1.7500  1.100      0.922803     -0.362268     -0.092208
    3   C      3    1.9255  1.100     -0.142288      0.412609     -0.098489
    4   C      4    1.9255  1.100     -1.483628     -0.101821      0.065843
    5   H      5    1.4430  1.100     -0.018596      1.452306     -0.030268
    6   H      6    1.4430  1.100     -1.615988     -0.634903      1.027311
    7   H      7    1.4430  1.100     -2.158543      0.653814      0.033612
    8   H      8    1.4430  1.100     -1.750081     -0.840274     -0.722545
 ------------------------------------------------------------------------------
 One-electron integrals computed using PRISM.
 PrsmSu:  requested number of processors reduced to:  30 ShMem   1 Linda.
   1 Symmetry operations used in ECPInt.
 ECPInt:  NShTT=     630 NPrTT=    2273 LenC2=     631 LenP2D=    2004.
 LDataN:  DoStor=T MaxTD1= 4 Len=   56
 NBasis=    71 RedAO= T EigKep=  3.78D-03  NBF=    71
 NBsUse=    71 1.00D-06 EigRej= -1.00D+00 NBFU=    71
 Initial guess from the checkpoint file:  "/home/zz1/proj/gauss/new/chk/Li-VUMCAH-2/65.chk"
 B after Tr=     0.000000   -0.000000   -0.000000
         Rot=    0.999687    0.024340   -0.002165   -0.005311 Ang=   2.87 deg.
 Initial guess <Sx>= 0.0000 <Sy>= 0.0000 <Sz>= 0.5000 <S**2>= 0.7542 S= 0.5021
 ExpMin= 2.10D-02 ExpMax= 2.27D+03 ExpMxC= 3.41D+02 IAcc=3 IRadAn=         5 AccDes= 0.00D+00
 Harris functional with IExCor= 1009 and IRadAn=       5 diagonalized for initial guess.
 HarFok:  IExCor= 1009 AccDes= 0.00D+00 IRadAn=         5 IDoV= 1 UseB2=F ITyADJ=14
 ICtDFT=  3500011 ScaDFX=  1.000000  1.000000  1.000000  1.000000
 FoFCou: FMM=F IPFlag=           0 FMFlag=      100000 FMFlg1=           0
         NFxFlg=           0 DoJE=T BraDBF=F KetDBF=T FulRan=T
         wScrn=  0.000000 ICntrl=       500 IOpCl=  0 I1Cent=   200000004 NGrid=           0
         NMat0=    1 NMatS0=      1 NMatT0=    0 NMatD0=    1 NMtDS0=    0 NMtDT0=    0
 Petite list used in FoFCou.
 Keep R1 and R2 ints in memory in canonical form, NReq=50497283.
 Requested convergence on RMS density matrix=1.00D-08 within 128 cycles.
 Requested convergence on MAX density matrix=1.00D-06.
 Requested convergence on             energy=1.00D-06.
 No special actions if energy rises.
 CoulSu:  requested number of processors reduced to:  46 ShMem   1 Linda.
 Inv3:  Mode=1 IEnd=     1973163.
 Iteration    1 A*A^-1 deviation from unit magnitude is 2.89D-15 for     42.
 Iteration    1 A*A^-1 deviation from orthogonality  is 1.94D-15 for    805    111.
 Iteration    1 A^-1*A deviation from unit magnitude is 2.66D-15 for     42.
 Iteration    1 A^-1*A deviation from orthogonality  is 2.44D-15 for    603    287.
 CoulSu:  requested number of processors reduced to:  46 ShMem   1 Linda.
 CoulSu:  requested number of processors reduced to:  46 ShMem   1 Linda.
 CoulSu:  requested number of processors reduced to:  47 ShMem   1 Linda.
 CoulSu:  requested number of processors reduced to:  44 ShMem   1 Linda.
 Error on total polarization charges =  0.01281
 SCF Done:  E(UM062X) =  -161.181068354     A.U. after   14 cycles
            NFock= 14  Conv=0.54D-08     -V/T= 2.0087
 <Sx>= 0.0000 <Sy>= 0.0000 <Sz>= 0.5000 <S**2>= 0.7543 S= 0.5022
 <L.S>=  0.00000000000    
 Annihilation of the first spin contaminant:
 S**2 before annihilation     0.7543,   after     0.7500

 **********************************************************************

            Population analysis using the SCF density.

 **********************************************************************

 Orbital symmetries:
 Alpha Orbitals:
       Occupied  (A) (A) (A) (A) (A) (A) (A) (A) (A) (A) (A) (A)
                 (A) (A)
       Virtual   (A) (A) (A) (A) (A) (A) (A) (A) (A) (A) (A) (A)
                 (A) (A) (A) (A) (A) (A) (A) (A) (A) (A) (A) (A)
                 (A) (A) (A) (A) (A) (A) (A) (A) (A) (A) (A) (A)
                 (A) (A) (A) (A) (A) (A) (A) (A) (A) (A) (A) (A)
                 (A) (A) (A) (A) (A) (A) (A) (A) (A)
 Beta  Orbitals:
       Occupied  (A) (A) (A) (A) (A) (A) (A) (A) (A) (A) (A) (A)
                 (A)
       Virtual   (A) (A) (A) (A) (A) (A) (A) (A) (A) (A) (A) (A)
                 (A) (A) (A) (A) (A) (A) (A) (A) (A) (A) (A) (A)
                 (A) (A) (A) (A) (A) (A) (A) (A) (A) (A) (A) (A)
                 (A) (A) (A) (A) (A) (A) (A) (A) (A) (A) (A) (A)
                 (A) (A) (A) (A) (A) (A) (A) (A) (A) (A)
 The electronic state is 2-A.
 Alpha  occ. eigenvalues --  -19.53540 -10.51528 -10.50745  -2.08114  -1.02534
 Alpha  occ. eigenvalues --   -0.79697  -0.60978  -0.50142  -0.46130  -0.44212
 Alpha  occ. eigenvalues --   -0.40937  -0.36806  -0.27949  -0.12944
 Alpha virt. eigenvalues --    0.00272   0.11223   0.12110   0.14225   0.15306
 Alpha virt. eigenvalues --    0.17929   0.20149   0.20580   0.24267   0.34916
 Alpha virt. eigenvalues --    0.38412   0.50223   0.54275   0.57574   0.60308
 Alpha virt. eigenvalues --    0.63944   0.67193   0.68208   0.72023   0.73170
 Alpha virt. eigenvalues --    0.74985   0.76277   0.77479   0.81179   0.82631
 Alpha virt. eigenvalues --    0.94445   1.15738   1.18775   1.22408   1.38185
 Alpha virt. eigenvalues --    1.44014   1.50285   1.57879   1.62564   1.67588
 Alpha virt. eigenvalues --    1.82081   1.85657   1.86179   1.91440   1.94389
 Alpha virt. eigenvalues --    2.08200   2.14881   2.15753   2.22022   2.33649
 Alpha virt. eigenvalues --    2.50788   2.60374   2.68256   2.78759   2.80248
 Alpha virt. eigenvalues --    2.85477   2.93828   3.00162   3.11793   3.18240
 Alpha virt. eigenvalues --    3.43275   3.62836
  Beta  occ. eigenvalues --  -19.52924 -10.50930 -10.50815  -2.08117  -1.00610
  Beta  occ. eigenvalues --   -0.78770  -0.58766  -0.49284  -0.44143  -0.43003
  Beta  occ. eigenvalues --   -0.40219  -0.31407  -0.27171
  Beta virt. eigenvalues --    0.00075   0.08516   0.10445   0.12153   0.13502
  Beta virt. eigenvalues --    0.14573   0.17908   0.19987   0.20454   0.24407
  Beta virt. eigenvalues --    0.35542   0.39362   0.51025   0.55397   0.57959
  Beta virt. eigenvalues --    0.62597   0.64520   0.67335   0.69020   0.71952
  Beta virt. eigenvalues --    0.73838   0.74160   0.76211   0.78675   0.82938
  Beta virt. eigenvalues --    0.83505   0.94270   1.18346   1.19810   1.23466
  Beta virt. eigenvalues --    1.38274   1.44520   1.51685   1.58710   1.62584
  Beta virt. eigenvalues --    1.69882   1.83293   1.85869   1.86619   1.93205
  Beta virt. eigenvalues --    1.94882   2.11117   2.15924   2.17808   2.24276
  Beta virt. eigenvalues --    2.34766   2.52423   2.61324   2.69682   2.80108
  Beta virt. eigenvalues --    2.81896   2.87346   2.94392   3.01837   3.13129
  Beta virt. eigenvalues --    3.20316   3.45421   3.64265
          Condensed to atoms (all electrons):
               1          2          3          4          5          6
     1  Li   2.066799   0.157163  -0.022511  -0.001753  -0.000208   0.002888
     2  O    0.157163   8.262095   0.340934  -0.084187  -0.048180   0.006052
     3  C   -0.022511   0.340934   5.056934   0.382679   0.411998  -0.043757
     4  C   -0.001753  -0.084187   0.382679   4.774424  -0.125017   0.335943
     5  H   -0.000208  -0.048180   0.411998  -0.125017   0.808445   0.002589
     6  H    0.002888   0.006052  -0.043757   0.335943   0.002589   0.796382
     7  H    0.000230   0.005071   0.005367   0.346876  -0.003480  -0.019432
     8  H    0.000418   0.005406  -0.053529   0.366337   0.012195  -0.070186
               7          8
     1  Li   0.000230   0.000418
     2  O    0.005071   0.005406
     3  C    0.005367  -0.053529
     4  C    0.346876   0.366337
     5  H   -0.003480   0.012195
     6  H   -0.019432  -0.070186
     7  H    0.698053  -0.022430
     8  H   -0.022430   0.761920
          Atomic-Atomic Spin Densities.
               1          2          3          4          5          6
     1  Li   0.004283   0.006360  -0.011763  -0.000683  -0.000935   0.001858
     2  O    0.006360   0.417350  -0.203508  -0.001078   0.000797   0.006664
     3  C   -0.011763  -0.203508   1.042334   0.033339   0.003867  -0.040107
     4  C   -0.000683  -0.001078   0.033339  -0.084476   0.008001  -0.035776
     5  H   -0.000935   0.000797   0.003867   0.008001  -0.049558  -0.004645
     6  H    0.001858   0.006664  -0.040107  -0.035776  -0.004645   0.193728
     7  H    0.000014  -0.000008  -0.002273   0.004066  -0.000693   0.002346
     8  H   -0.000780   0.003642  -0.051107   0.009704   0.002610  -0.058779
               7          8
     1  Li   0.000014  -0.000780
     2  O   -0.000008   0.003642
     3  C   -0.002273  -0.051107
     4  C    0.004066   0.009704
     5  H   -0.000693   0.002610
     6  H    0.002346  -0.058779
     7  H   -0.001322  -0.002438
     8  H   -0.002438   0.140271
 Mulliken charges and spin densities:
               1          2
     1  Li   0.796974  -0.001646
     2  O   -0.644352   0.230219
     3  C   -0.078115   0.770781
     4  C    0.004699  -0.066904
     5  H   -0.058342  -0.040555
     6  H   -0.010479   0.065290
     7  H   -0.010256  -0.000307
     8  H   -0.000130   0.043123
 Sum of Mulliken charges =  -0.00000   1.00000
 Mulliken charges and spin densities with hydrogens summed into heavy atoms:
               1          2
     1  Li   0.796974  -0.001646
     2  O   -0.644352   0.230219
     3  C   -0.136456   0.730226
     4  C   -0.016166   0.041201
 Electronic spatial extent (au):  <R**2>=            240.6765
 Charge=             -0.0000 electrons
 Dipole moment (field-independent basis, Debye):
    X=              8.3444    Y=              1.9010    Z=              1.4217  Tot=              8.6755
 Quadrupole moment (field-independent basis, Debye-Ang):
   XX=              4.5547   YY=            -22.2800   ZZ=            -22.3183
   XY=              2.7748   XZ=              2.9418   YZ=              0.3059
 Traceless Quadrupole moment (field-independent basis, Debye-Ang):
   XX=             17.9026   YY=             -8.9321   ZZ=             -8.9705
   XY=              2.7748   XZ=              2.9418   YZ=              0.3059
 Octapole moment (field-independent basis, Debye-Ang**2):
  XXX=             98.3752  YYY=              0.2785  ZZZ=              1.5101  XYY=              5.2231
  XXY=              7.4443  XXZ=              7.1232  XZZ=              6.2657  YZZ=             -0.6288
  YYZ=              0.4713  XYZ=              0.0896
 Hexadecapole moment (field-independent basis, Debye-Ang**3):
 XXXX=              5.9771 YYYY=            -53.1827 ZZZZ=            -33.8703 XXXY=             10.7161
 XXXZ=             22.3329 YYYX=              0.8751 YYYZ=              0.8219 ZZZX=              3.3271
 ZZZY=              0.9491 XXYY=            -42.8642 XXZZ=            -40.4747 YYZZ=            -14.8002
 XXYZ=              1.4498 YYXZ=              1.2867 ZZXY=              0.6401
 N-N= 8.303205819763D+01 E-N=-5.444352893405D+02  KE= 1.597888137973D+02
                          Isotropic Fermi Contact Couplings
        Atom                 a.u.       MegaHertz       Gauss      10(-4) cm-1
     1  Li(7)             -0.00117      -2.03297      -0.72541      -0.67813
     2  O(17)              0.10505     -63.68347     -22.72385     -21.24252
     3  C(13)              0.14458     162.53114      57.99515      54.21455
     4  C(13)             -0.03859     -43.38700     -15.48156     -14.47235
     5  H(1)              -0.01042     -46.55430     -16.61173     -15.52884
     6  H(1)               0.02226      99.48951      35.50033      33.18613
     7  H(1)               0.00041       1.81498       0.64763       0.60541
     8  H(1)               0.01842      82.35305      29.38562      27.47002
 --------------------------------------------------------
       Center         ----  Spin Dipole Couplings  ----
                      3XX-RR        3YY-RR        3ZZ-RR
 --------------------------------------------------------
     1   Atom        0.015931     -0.008672     -0.007259
     2   Atom       -0.580959     -0.555026      1.135985
     3   Atom       -0.412042     -0.407793      0.819834
     4   Atom        0.017942     -0.003109     -0.014833
     5   Atom       -0.061859      0.061218      0.000641
     6   Atom        0.006532     -0.003306     -0.003226
     7   Atom        0.018587     -0.011597     -0.006990
     8   Atom        0.008213     -0.001187     -0.007026
 --------------------------------------------------------
                        XY            XZ            YZ
 --------------------------------------------------------
     1   Atom        0.004342      0.002089     -0.000126
     2   Atom        0.037786      0.049040      0.016071
     3   Atom       -0.004271      0.069732     -0.008724
     4   Atom        0.010531     -0.002174      0.000091
     5   Atom        0.017872      0.003881      0.006583
     6   Atom        0.008638     -0.007918     -0.004224
     7   Atom       -0.001147     -0.002759      0.000001
     8   Atom        0.011688      0.004005      0.001743
 --------------------------------------------------------


 ---------------------------------------------------------------------------------
              Anisotropic Spin Dipole Couplings in Principal Axis System
 ---------------------------------------------------------------------------------

       Atom             a.u.   MegaHertz   Gauss  10(-4) cm-1        Axes

              Baa    -0.0095    -1.975    -0.705    -0.659 -0.1816  0.9583  0.2206
     1 Li(7)  Bbb    -0.0073    -1.519    -0.542    -0.507 -0.0440 -0.2320  0.9717
              Bcc     0.0168     3.494     1.247     1.165  0.9824  0.1668  0.0843
 
              Baa    -0.6085    44.029    15.711    14.687  0.8190 -0.5736 -0.0177
     2 O(17)  Bbb    -0.5291    38.283    13.661    12.770  0.5731  0.8191 -0.0248
              Bcc     1.1376   -82.313   -29.371   -27.457  0.0287  0.0101  0.9995
 
              Baa    -0.4175   -56.019   -19.989   -18.686  0.9294  0.3657 -0.0498
     3 C(13)  Bbb    -0.4064   -54.532   -19.458   -18.190 -0.3647  0.9307  0.0274
              Bcc     0.8238   110.551    39.447    36.876  0.0564 -0.0073  0.9984
 
              Baa    -0.0150    -2.019    -0.721    -0.674  0.0943 -0.0908  0.9914
     4 C(13)  Bbb    -0.0074    -0.988    -0.353    -0.330 -0.3727  0.9202  0.1197
              Bcc     0.0224     3.007     1.073     1.003  0.9232  0.3808 -0.0529
 
[...]
    A5        1.97201   0.00001   0.00492  -0.00071   0.00419   1.97619
    A6        1.95745  -0.00067   0.00296  -0.00142   0.00154   1.95899
    A7        1.92053   0.00161  -0.01634   0.00239  -0.01395   1.90659
    A8        1.86788   0.00016  -0.00073   0.00031  -0.00045   1.86742
    A9        1.84624  -0.00034  -0.00309  -0.00069  -0.00381   1.84243
   A10        1.89471  -0.00083   0.01285   0.00013   0.01301   1.90772
    D1       -2.64154  -0.00004   0.00020  -0.00526  -0.00506  -2.64660
    D2       -0.07623   0.00006  -0.00013   0.00133   0.00119  -0.07504
    D3        1.16708   0.00021   0.00487  -0.02195  -0.01707   1.15002
    D4       -3.00308  -0.00007   0.00965  -0.02311  -0.01343  -3.01651
    D5       -0.89210  -0.00045   0.01669  -0.02224  -0.00558  -0.89768
    D6       -1.41847   0.00037   0.00476  -0.02706  -0.02230  -1.44077
    D7        0.69456   0.00008   0.00954  -0.02823  -0.01867   0.67589
    D8        2.80553  -0.00030   0.01657  -0.02736  -0.01082   2.79472
         Item               Value     Threshold  Converged?
 Maximum Force            0.003469     0.000450     NO 
 RMS     Force            0.001096     0.000300     NO 
 Maximum Displacement     0.191934     0.001800     NO 
 RMS     Displacement     0.056647     0.001200     NO 
 Predicted change in Energy=-2.448964D-04
 Optimization stopped.
    -- Number of steps exceeded,  NStep=  10
    -- Flag reset to prevent archiving.
                           ----------------------------
                           ! Non-Optimized Parameters !
                           ! (Angstroms and Degrees)  !
 --------------------------                            --------------------------
 ! Name  Definition              Value          Derivative Info.                !
 --------------------------------------------------------------------------------
 ! R1    R(1,2)                  1.7577         -DE/DX =   -0.0005              !
 ! R2    R(2,3)                  1.3158         -DE/DX =   -0.0019              !
 ! R3    R(3,4)                  1.5077         -DE/DX =    0.0                 !
 ! R4    R(3,5)                  1.1147         -DE/DX =    0.0001              !
 ! R5    R(4,6)                  1.113          -DE/DX =    0.0004              !
 ! R6    R(4,7)                  1.1064         -DE/DX =   -0.0022              !
 ! R7    R(4,8)                  1.1028         -DE/DX =    0.0004              !
 ! A1    A(1,2,3)              144.7688         -DE/DX =    0.0035              !
 ! A2    A(2,3,4)              119.1128         -DE/DX =   -0.0017              !
 ! A3    A(2,3,5)              118.2289         -DE/DX =    0.0003              !
 ! A4    A(4,3,5)              114.703          -DE/DX =    0.0012              !
 ! A5    A(3,4,6)              113.2275         -DE/DX =    0.0                 !
 ! A6    A(3,4,7)              112.2421         -DE/DX =   -0.0007              !
 ! A7    A(3,4,8)              109.2393         -DE/DX =    0.0016              !
 ! A8    A(6,4,7)              106.9955         -DE/DX =    0.0002              !
 ! A9    A(6,4,8)              105.5635         -DE/DX =   -0.0003              !
 ! A10   A(7,4,8)              109.3041         -DE/DX =   -0.0008              !
 ! D1    D(1,2,3,4)           -151.6388         -DE/DX =    0.0                 !
 ! D2    D(1,2,3,5)             -4.2995         -DE/DX =    0.0001              !
 ! D3    D(2,3,4,6)             65.8911         -DE/DX =    0.0002              !
 ! D4    D(2,3,4,7)           -172.8332         -DE/DX =   -0.0001              !
 ! D5    D(2,3,4,8)            -51.4332         -DE/DX =   -0.0005              !
 ! D6    D(5,3,4,6)            -82.5502         -DE/DX =    0.0004              !
 ! D7    D(5,3,4,7)             38.7256         -DE/DX =    0.0001              !
 ! D8    D(5,3,4,8)            160.1256         -DE/DX =   -0.0003              !
 --------------------------------------------------------------------------------
 GradGradGradGradGradGradGradGradGradGradGradGradGradGradGradGradGradGrad

                          Input orientation:                          
 ---------------------------------------------------------------------
 Center     Atomic      Atomic             Coordinates (Angstroms)
 Number     Number       Type             X           Y           Z
 ---------------------------------------------------------------------
      1          3           0        2.326683   -0.276634    4.313959
      2          8           0        0.583143   -0.067958    4.197572
      3          6           0       -0.277285    0.928221    4.211471
      4          6           0       -1.671892    0.677330    4.721145
      5          1           0        0.107600    1.956054    4.398020
      6          1           0       -1.702056    0.447655    5.809618
      7          1           0       -2.338085    1.542406    4.554667
      8          1           0       -2.106347   -0.202874    4.216467
 ---------------------------------------------------------------------
                    Distance matrix (angstroms):
                    1          2          3          4          5
     1  Li   0.000000
     2  O    1.759836   0.000000
     3  C    2.871032   1.316397   0.000000
     4  C    4.130914   2.432029   1.505870   0.000000
     5  H    3.149014   2.088767   1.113273   2.214981   0.000000
     6  H    4.358018   2.843709   2.194309   1.112849   2.746404
     7  H    5.012675   3.354752   2.177591   1.104484   2.485361
     8  H    4.434715   2.692937   2.150551   1.103725   3.097660
                    6          7          8
     6  H    0.000000
     7  H    1.782671   0.000000
     8  H    1.767701   1.792787   0.000000
 Stoichiometry    C2H4LiO(2)
 Framework group  C1[X(C2H4LiO)]
 Deg. of freedom    18
 Full point group                 C1      NOp   1
 Largest Abelian subgroup         C1      NOp   1
 Largest concise Abelian subgroup C1      NOp   1
                         Standard orientation:                         
 ---------------------------------------------------------------------
 Center     Atomic      Atomic             Coordinates (Angstroms)
 Number     Number       Type             X           Y           Z
 ---------------------------------------------------------------------
      1          3           0        2.639763   -0.058050    0.267389
      2          8           0        0.936942   -0.260502   -0.128131
      3          6           0       -0.149515    0.482609   -0.145459
      4          6           0       -1.485025   -0.176807    0.076415
      5          1           0       -0.079992    1.528692    0.229048
      6          1           0       -1.604677   -0.580328    1.106602
      7          1           0       -2.326334    0.517015   -0.098788
      8          1           0       -1.596580   -1.042027   -0.599720
 ---------------------------------------------------------------------
 Rotational constants (GHZ):          45.7836801           4.9689101           4.7089081

 **********************************************************************

            Population analysis using the SCF density.

 **********************************************************************

 Orbital symmetries:
 Alpha Orbitals:
       Occupied  (A) (A) (A) (A) (A) (A) (A) (A) (A) (A) (A) (A)
                 (A) (A)
       Virtual   (A) (A) (A) (A) (A) (A) (A) (A) (A) (A) (A) (A)
                 (A) (A) (A) (A) (A) (A) (A) (A) (A) (A) (A) (A)
                 (A) (A) (A) (A) (A) (A) (A) (A) (A) (A) (A) (A)
                 (A) (A) (A) (A) (A) (A) (A) (A) (A) (A) (A) (A)
                 (A) (A) (A) (A) (A) (A) (A) (A) (A)
 Beta  Orbitals:
       Occupied  (A) (A) (A) (A) (A) (A) (A) (A) (A) (A) (A) (A)
                 (A)
       Virtual   (A) (A) (A) (A) (A) (A) (A) (A) (A) (A) (A) (A)
                 (A) (A) (A) (A) (A) (A) (A) (A) (A) (A) (A) (A)
                 (A) (A) (A) (A) (A) (A) (A) (A) (A) (A) (A) (A)
                 (A) (A) (A) (A) (A) (A) (A) (A) (A) (A) (A) (A)
                 (A) (A) (A) (A) (A) (A) (A) (A) (A) (A)
 The electronic state is 2-A.
 Alpha  occ. eigenvalues --  -19.54240 -10.53459 -10.52050  -2.08010  -1.03254
 Alpha  occ. eigenvalues --   -0.78034  -0.60489  -0.49215  -0.45932  -0.43909
 Alpha  occ. eigenvalues --   -0.40786  -0.37458  -0.28001  -0.14693
 Alpha virt. eigenvalues --    0.00288   0.11293   0.12295   0.14420   0.15026
 Alpha virt. eigenvalues --    0.17714   0.19885   0.20334   0.21854   0.32829
 Alpha virt. eigenvalues --    0.37073   0.51309   0.52664   0.56888   0.58192
 Alpha virt. eigenvalues --    0.63363   0.65456   0.68348   0.70419   0.72401
 Alpha virt. eigenvalues --    0.72985   0.75683   0.75952   0.77673   0.79405
 Alpha virt. eigenvalues --    0.91776   1.16084   1.19226   1.24338   1.39721
 Alpha virt. eigenvalues --    1.42421   1.43659   1.57479   1.60454   1.65023
 Alpha virt. eigenvalues --    1.79857   1.82465   1.85793   1.86838   1.89031
 Alpha virt. eigenvalues --    1.96074   2.08367   2.14387   2.21635   2.27829
 Alpha virt. eigenvalues --    2.45028   2.50741   2.59331   2.74447   2.74580
 Alpha virt. eigenvalues --    2.82292   2.92176   2.94938   2.97081   3.17451
 Alpha virt. eigenvalues --    3.34147   3.60251
  Beta  occ. eigenvalues --  -19.53630 -10.52813 -10.52088  -2.08013  -1.01351
  Beta  occ. eigenvalues --   -0.77162  -0.58246  -0.48178  -0.44171  -0.42584
  Beta  occ. eigenvalues --   -0.40222  -0.32154  -0.27221
  Beta virt. eigenvalues --    0.00174   0.07385   0.10501   0.12207   0.13437
  Beta virt. eigenvalues --    0.14517   0.17690   0.19615   0.20127   0.22063
  Beta virt. eigenvalues --    0.33750   0.37864   0.51931   0.53995   0.57345
  Beta virt. eigenvalues --    0.60663   0.64182   0.65138   0.68860   0.70963
  Beta virt. eigenvalues --    0.72737   0.73338   0.75533   0.77072   0.78016
  Beta virt. eigenvalues --    0.80560   0.91671   1.18597   1.20096   1.25077
  Beta virt. eigenvalues --    1.39935   1.43052   1.44413   1.59312   1.60535
  Beta virt. eigenvalues --    1.66205   1.80720   1.82956   1.86311   1.87912
  Beta virt. eigenvalues --    1.90776   1.97934   2.09708   2.16043   2.24311
  Beta virt. eigenvalues --    2.29363   2.46570   2.51605   2.60684   2.75955
  Beta virt. eigenvalues --    2.76097   2.83825   2.93474   2.96048   2.98479
  Beta virt. eigenvalues --    3.19644   3.36159   3.61554
          Condensed to atoms (all electrons):
               1          2          3          4          5          6
     1  Li   2.069444   0.158088  -0.015592  -0.003509  -0.002695   0.004156
     2  O    0.158088   8.244640   0.346625  -0.083595  -0.046542   0.004499
     3  C   -0.015592   0.346625   5.113622   0.341046   0.346901  -0.025501
     4  C   -0.003509  -0.083595   0.341046   4.864384  -0.093487   0.340600
     5  H   -0.002695  -0.046542   0.346901  -0.093487   0.836771  -0.007881
     6  H    0.004156   0.004499  -0.025501   0.340600  -0.007881   0.752327
     7  H    0.000180   0.004429  -0.007922   0.349724   0.001487  -0.024827
     8  H    0.000213   0.007109  -0.039878   0.369316   0.013323  -0.048884
               7          8
     1  Li   0.000180   0.000213
     2  O    0.004429   0.007109
     3  C   -0.007922  -0.039878
     4  C    0.349724   0.369316
     5  H    0.001487   0.013323
     6  H   -0.024827  -0.048884
     7  H    0.678408  -0.018679
     8  H   -0.018679   0.702998
          Atomic-Atomic Spin Densities.
               1          2          3          4          5          6
     1  Li   0.007067   0.007110  -0.005555  -0.002532  -0.004454   0.003781
     2  O    0.007110   0.403288  -0.189365  -0.000045  -0.000023   0.006527
     3  C   -0.005555  -0.189365   1.087460  -0.024528  -0.038040  -0.018399
     4  C   -0.002532  -0.000045  -0.024528  -0.029921   0.022025  -0.044462
     5  H   -0.004454  -0.000023  -0.038040   0.022025  -0.001195  -0.010382
     6  H    0.003781   0.006527  -0.018399  -0.044462  -0.010382   0.155825
     7  H    0.000004  -0.000079  -0.003444   0.007407  -0.000214  -0.000814
     8  H   -0.001757   0.001057  -0.030680   0.018392   0.003177  -0.032383
               7          8
     1  Li   0.000004  -0.001757
     2  O   -0.000079   0.001057
     3  C   -0.003444  -0.030680
     4  C    0.007407   0.018392
     5  H   -0.000214   0.003177
     6  H   -0.000814  -0.032383
     7  H   -0.002464   0.000454
     8  H    0.000454   0.054385
 Mulliken charges and spin densities:
               1          2
     1  Li   0.789716   0.003664
     2  O   -0.635253   0.228469
     3  C   -0.059299   0.777448
     4  C   -0.084479  -0.053665
     5  H   -0.047878  -0.029105
     6  H    0.005511   0.059693
     7  H    0.017201   0.000850
     8  H    0.014481   0.012645
 Sum of Mulliken charges =  -0.00000   1.00000
 Mulliken charges and spin densities with hydrogens summed into heavy atoms:
               1          2
     1  Li   0.789716   0.003664
     2  O   -0.635253   0.228469
     3  C   -0.107177   0.748343
     4  C   -0.047286   0.019524
 Electronic spatial extent (au):  <R**2>=            245.1378
 Charge=             -0.0000 electrons
 Dipole moment (field-independent basis, Debye):
    X=              8.2886    Y=              0.3490    Z=              2.0540  Tot=              8.5465
 Quadrupole moment (field-independent basis, Debye-Ang):
   XX=              4.3127   YY=            -22.6666   ZZ=            -22.4269
   XY=              0.3575   XZ=              3.7464   YZ=              0.4506
 Traceless Quadrupole moment (field-independent basis, Debye-Ang):
   XX=             17.9063   YY=             -9.0730   ZZ=             -8.8333
   XY=              0.3575   XZ=              3.7464   YZ=              0.4506
 Octapole moment (field-independent basis, Debye-Ang**2):
  XXX=             98.0631  YYY=             -2.2855  ZZZ=              2.3832  XYY=              5.4179
  XXY=             -0.0050  XXZ=              9.1465  XZZ=              6.6831  YZZ=             -1.4722
  YYZ=              0.7908  XYZ=             -0.5002
 Hexadecapole moment (field-independent basis, Debye-Ang**3):
 XXXX=              2.6241 YYYY=            -57.9316 ZZZZ=            -35.4673 XXXY=             -8.2697
 XXXZ=             28.6226 YYYX=             -0.8541 YYYZ=              1.4521 ZZZX=              3.8899
 ZZZY=              1.1212 XXYY=            -44.8688 XXZZ=            -40.3334 YYZZ=            -15.8714
 XXYZ=             -0.0615 YYXZ=              1.6893 ZZXY=              0.0772
 N-N= 8.186227428634D+01 E-N=-5.418208016325D+02  KE= 1.595084389798D+02
                          Isotropic Fermi Contact Couplings
        Atom                 a.u.       MegaHertz       Gauss      10(-4) cm-1
     1  Li(7)             -0.00076      -1.31908      -0.47068      -0.44000
     2  O(17)              0.10765     -65.25878     -23.28596     -21.76799
     3  C(13)              0.22689     255.06826      91.01470      85.08161
     4  C(13)             -0.01338     -15.03881      -5.36622      -5.01641
     5  H(1)              -0.00447     -19.97182      -7.12644      -6.66188
     6  H(1)               0.02002      89.47048      31.92529      29.84414
     7  H(1)               0.00153       6.82969       2.43700       2.27814
     8  H(1)               0.00818      36.56279      13.04651      12.19603
 --------------------------------------------------------
       Center         ----  Spin Dipole Couplings  ----
                      3XX-RR        3YY-RR        3ZZ-RR
 --------------------------------------------------------
     1   Atom        0.016943     -0.010102     -0.006842
     2   Atom       -0.575680     -0.512914      1.088594
     3   Atom       -0.395435     -0.356668      0.752103
     4   Atom        0.018164     -0.002627     -0.015538
     5   Atom       -0.053148      0.049086      0.004061
     6   Atom        0.004303     -0.003104     -0.001199
     7   Atom        0.017050     -0.010197     -0.006852
     8   Atom        0.004008      0.003779     -0.007788
 --------------------------------------------------------
                        XY            XZ            YZ
 --------------------------------------------------------
     1   Atom        0.001311      0.003566     -0.000773
     2   Atom        0.033816     -0.006397     -0.220229
     3   Atom       -0.015338      0.073378     -0.203165
     4   Atom        0.012948     -0.005790     -0.001123
     5   Atom        0.008674      0.003882      0.025926
     6   Atom        0.007499     -0.007270     -0.004882
     7   Atom        0.001039     -0.002651     -0.000636
     8   Atom        0.013564      0.002706      0.001438
 --------------------------------------------------------


 ---------------------------------------------------------------------------------
              Anisotropic Spin Dipole Couplings in Principal Axis System
 ---------------------------------------------------------------------------------

       Atom             a.u.   MegaHertz   Gauss  10(-4) cm-1        Axes

              Baa    -0.0104    -2.167    -0.773    -0.723 -0.0830  0.9544  0.2867
     1 Li(7)  Bbb    -0.0071    -1.466    -0.523    -0.489 -0.1245 -0.2953  0.9472
              Bcc     0.0175     3.633     1.296     1.212  0.9887  0.0429  0.1434
 
              Baa    -0.5958    43.112    15.384    14.381  0.8521 -0.5194 -0.0647
     2 O(17)  Bbb    -0.5226    37.814    13.493    12.613  0.5234  0.8440  0.1174
              Bcc     1.1184   -80.926   -28.877   -26.994 -0.0064 -0.1339  0.9910
 
              Baa    -0.4008   -53.784   -19.191   -17.940  0.9606  0.2776 -0.0122
     3 C(13)  Bbb    -0.3921   -52.614   -18.774   -17.550 -0.2707  0.9447  0.1851
              Bcc     0.7929   106.397    37.965    35.490  0.0629 -0.1745  0.9826
 
              Baa    -0.0166    -2.230    -0.796    -0.744  0.2028 -0.1095  0.9731
     4 C(13)  Bbb    -0.0086    -1.148    -0.410    -0.383 -0.3961  0.8996  0.1838
              Bcc     0.0252     3.378     1.205     1.127  0.8955  0.4227 -0.1390
 
              Baa    -0.0539   -28.777   -10.268    -9.599  0.9966 -0.0756 -0.0329
     5 H(1)   Bbb    -0.0078    -4.142    -1.478    -1.382 -0.0014 -0.4148  0.9099
              Bcc     0.0617    32.918    11.746    10.980  0.0825  0.9068  0.4135
 
              Baa    -0.0078    -4.168    -1.487    -1.390 -0.4542  0.8783  0.1492
     6 H(1)   Bbb    -0.0062    -3.304    -1.179    -1.102  0.5074  0.1174  0.8537
              Bcc     0.0140     7.472     2.666     2.492  0.7323  0.4634 -0.4990
 
              Baa    -0.0103    -5.509    -1.966    -1.838 -0.0216  0.9862  0.1641
     7 H(1)   Bbb    -0.0071    -3.766    -1.344    -1.256  0.1147 -0.1606  0.9803
              Bcc     0.0174     9.275     3.310     3.094  0.9932  0.0400 -0.1097
 
              Baa    -0.0101    -5.372    -1.917    -1.792  0.6727 -0.6164 -0.4094
     8 H(1)   Bbb    -0.0077    -4.123    -1.471    -1.375  0.2150 -0.3666  0.9052
              Bcc     0.0178     9.495     3.388     3.167  0.7080  0.6969  0.1141
 

 ---------------------------------------------------------------------------------



 OF ALL THE WONDERS OF THE UNIVERSE, THE GREATEST IS MAN.

                                    -- ARISTOTLE
 Error termination request processed by link 9999.
 Error termination via Lnk1e in /home/pub/g16/l9999.exe at Wed May 10 02:31:37 2023.
 Job cpu time:       0 days  0 hours 27 minutes  7.9 seconds.
 Elapsed time:       0 days  0 hours  0 minutes 36.0 seconds.
 File lengths (MBytes):  RWF=     32 Int=      0 D2E=      0 Chk=      3 Scr=      1
