 Entering Gaussian System, Link 0=g16
 Initial command:
 /home/pub/g16/l1.exe "/home/zz1/gauss/SCRDIR/Gau-513169.inp" -scrdir="/home/zz1/gauss/SCRDIR/"
 Entering Link 1 = /home/pub/g16/l1.exe PID=    513171.
  
 Copyright (c) 1988,1990,1992,1993,1995,1998,2003,2009,2016,
            Gaussian, Inc.  All Rights Reserved.
  
 This is part of the Gaussian(R) 16 program.  It is based on
 the Gaussian(R) 09 system (copyright 2009, Gaussian, Inc.),
 the Gaussian(R) 03 system (copyright 2003, Gaussian, Inc.),
 the Gaussian(R) 98 system (copyright 1998, Gaussian, Inc.),
 the Gaussian(R) 94 system (copyright 1995, Gaussian, Inc.),
 the Gaussian 92(TM) system (copyright 1992, Gaussian, Inc.),
 the Gaussian 90(TM) system (copyright 1990, Gaussian, Inc.),
 the Gaussian 88(TM) system (copyright 1988, Gaussian, Inc.),
 the Gaussian 86(TM) system (copyright 1986, Carnegie Mellon
 University), and the Gaussian 82(TM) system (copyright 1983,
 Carnegie Mellon University). Gaussian is a federally registered
 trademark of Gaussian, Inc.
  
 This software contains proprietary and confidential information,
 including trade secrets, belonging to Gaussian, Inc.
  
 This software is provided under written license and may be
 used, copied, transmitted, or stored only in accord with that
 written license.
  
 The following legend is applicable only to US Government
 contracts under FAR:
  
                    RESTRICTED RIGHTS LEGEND
  
 Use, reproduction and disclosure by the US Government is
 subject to restrictions as set forth in subparagraphs (a)
 and (c) of the Commercial Computer Software - Restricted
 Rights clause in FAR 52.227-19.
  
 Gaussian, Inc.
 340 Quinnipiac St., Bldg. 40, Wallingford CT 06492
  
  
 ---------------------------------------------------------------
 Warning -- This program may not be used in any manner that
 competes with the business of Gaussian, Inc. or will provide
 assistance to any competitor of Gaussian, Inc.  The licensee
 of this program is prohibited from giving any competitor of
 Gaussian, Inc. access to this program.  By using this program,
 the user acknowledges that Gaussian, Inc. is engaged in the
 business of creating and licensing software in the field of
 computational chemistry and represents and warrants to the
 licensee that it is not a competitor of Gaussian, Inc. and that
 it will not use this program in any manner prohibited above.
 ---------------------------------------------------------------
  

 Cite this work as:
 Gaussian 16, Revision A.03,
 M. J. Frisch, G. W. Trucks, H. B. Schlegel, G. E. Scuseria, 
 M. A. Robb, J. R. Cheeseman, G. Scalmani, V. Barone, 
 G. A. Petersson, H. Nakatsuji, X. Li, M. Caricato, A. V. Marenich, 
 J. Bloino, B. G. Janesko, R. Gomperts, B. Mennucci, H. P. Hratchian, 
 J. V. Ortiz, A. F. Izmaylov, J. L. Sonnenberg, D. Williams-Young, 
 F. Ding, F. Lipparini, F. Egidi, J. Goings, B. Peng, A. Petrone, 
 T. Henderson, D. Ranasinghe, V. G. Zakrzewski, J. Gao, N. Rega, 
 G. Zheng, W. Liang, M. Hada, M. Ehara, K. Toyota, R. Fukuda, 
 J. Hasegawa, M. Ishida, T. Nakajima, Y. Honda, O. Kitao, H. Nakai, 
 T. Vreven, K. Throssell, J. A. Montgomery, Jr., J. E. Peralta, 
 F. Ogliaro, M. J. Bearpark, J. J. Heyd, E. N. Brothers, K. N. Kudin, 
 V. N. Staroverov, T. A. Keith, R. Kobayashi, J. Normand, 
 K. Raghavachari, A. P. Rendell, J. C. Burant, S. S. Iyengar, 
 J. Tomasi, M. Cossi, J. M. Millam, M. Klene, C. Adamo, R. Cammi, 
 J. W. Ochterski, R. L. Martin, K. Morokuma, O. Farkas, 
 J. B. Foresman, and D. J. Fox, Gaussian, Inc., Wallingford CT, 2016.
 
 ******************************************
 Gaussian 16:  ES64L-G16RevA.03 25-Dec-2016
                25-Jun-2023 
 ******************************************
 %chk=/home/zz1/proj/gauss/new/chk/Mg-ESAGAI-4/166.chk
 %CPU=0-48
 SetSPE:  set environment variable "MP_BIND" = "yes"
 SetSPE:  set environment variable "MP_BLIST" = "0,1,2,3,4,5,6,7,8,9,10,11,12,13,14,15,16,17,18,19,20,21,22,23,24,25,26,27,28,29,30,31,32,33,34,35,36,37,38,39,40,41,42,43,44,45,46,47,48"
 Will use up to   49 processors via shared memory.
 ----------------------------------------------------
 # M062X/Def2SVP opt(MaxCyc=10)/freq SCRF pop(Always)
 ----------------------------------------------------
 1/6=10,18=20,19=15,26=3,38=1/1,3;
 2/9=110,12=2,17=6,18=5,40=1/2;
 3/5=43,7=101,11=2,25=1,30=1,70=2201,71=1,74=-55/1,2,3;
 4//1;
 5/5=2,38=5/2;
 6/7=2,8=2,9=2,10=2,28=1/1;
 7//1,2,3,16;
 1/6=10,18=20,19=15,26=3/3(2);
 2/9=110/2;
 99//99;
 2/9=110/2;
 3/5=43,7=101,11=2,25=1,30=1,70=2205,71=1,74=-55/1,2,3;
 4/5=5,16=3,69=1/1;
 5/5=2,38=5/2;
 6/7=2,8=2,9=2,10=2,28=1/1;
 7//1,2,3,16;
 1/6=10,18=20,19=15,26=3/3(-6);
 2/9=110/2;
 6/7=2,8=2,9=2,10=2,19=2,28=1/1;
 99/9=1/99;
 -----------
 Mg-ESAGAI-4
 -----------
 Symbolic Z-matrix:
 Charge =  0 Multiplicity = 1
 Mg                    11.01155  -4.20871   27.04974 
 O                     10.3054  -2.72249   25.84569 
 C                     10.16365  -2.01979   24.9066 
 N                     10.1429  -1.11615   24.2885 
 H                     11.00926  -0.80686   23.39412 
 
 Add virtual bond connecting atoms H5         and N4         Dist= 2.42D+00.

 GradGradGradGradGradGradGradGradGradGradGradGradGradGradGradGradGradGrad
 Berny optimization.
 Initialization pass.
                           ----------------------------
                           !    Initial Parameters    !
                           ! (Angstroms and Degrees)  !
 --------------------------                            --------------------------
 ! Name  Definition              Value          Derivative Info.                !
 --------------------------------------------------------------------------------
 ! R1    R(1,2)                  2.0389         estimate D2E/DX2                !
 ! R2    R(2,3)                  1.1814         estimate D2E/DX2                !
 ! R3    R(3,4)                  1.095          estimate D2E/DX2                !
 ! R4    R(4,5)                  1.283          estimate D2E/DX2                !
 ! A1    A(1,2,3)              160.8229         estimate D2E/DX2                !
 ! A2    A(2,3,4)              160.356          estimate D2E/DX2                !
 ! A3    A(3,4,5)              125.424          estimate D2E/DX2                !
 ! D1    D(1,2,3,4)           -118.0302         estimate D2E/DX2                !
 ! D2    D(2,3,4,5)            104.929          estimate D2E/DX2                !
 --------------------------------------------------------------------------------
 Trust Radius=3.00D-01 FncErr=1.00D-07 GrdErr=1.00D-06 EigMax=2.50D+02 EigMin=1.00D-04
 Number of steps in this run=     10 maximum allowed number of steps=    100.
 GradGradGradGradGradGradGradGradGradGradGradGradGradGradGradGradGradGrad

                          Input orientation:                          
 ---------------------------------------------------------------------
 Center     Atomic      Atomic             Coordinates (Angstroms)
 Number     Number       Type             X           Y           Z
 ---------------------------------------------------------------------
      1         12           0       11.011550   -4.208710   27.049740
      2          8           0       10.305400   -2.722490   25.845690
      3          6           0       10.163650   -2.019790   24.906600
      4          7           0       10.142900   -1.116150   24.288500
      5          1           0       11.009260   -0.806860   23.394120
 ---------------------------------------------------------------------
                    Distance matrix (angstroms):
                    1          2          3          4          5
     1  Mg   0.000000
     2  O    2.038930   0.000000
     3  C    3.178577   1.181427   0.000000
     4  N    4.235909   2.243117   1.095008   0.000000
     5  H    4.993611   3.189867   2.115148   1.283026   0.000000
 Stoichiometry    CHMgNO
 Framework group  C1[X(CHMgNO)]
 Deg. of freedom     9
 Full point group                 C1      NOp   1
 Largest Abelian subgroup         C1      NOp   1
 Largest concise Abelian subgroup C1      NOp   1
                         Standard orientation:                         
 ---------------------------------------------------------------------
 Center     Atomic      Atomic             Coordinates (Angstroms)
 Number     Number       Type             X           Y           Z
 ---------------------------------------------------------------------
      1         12           0       -2.046862    0.113788   -0.005231
      2          8           0       -0.039937   -0.244953   -0.033372
      3          6           0        1.120800   -0.106937    0.138123
      4          7           0        2.187355    0.017522   -0.076385
      5          1           0        2.845559    1.113132    0.035699
 ---------------------------------------------------------------------
 Rotational constants (GHZ):         173.1515517           2.6457564           2.6148243
 Standard basis: def2SVP (5D, 7F)
 There are    69 symmetry adapted cartesian basis functions of A   symmetry.
 There are    65 symmetry adapted basis functions of A   symmetry.
    65 basis functions,   119 primitive gaussians,    69 cartesian basis functions
    17 alpha electrons       17 beta electrons
       nuclear repulsion energy       109.3910473480 Hartrees.
 NAtoms=    5 NActive=    5 NUniq=    5 SFac= 1.00D+00 NAtFMM=   60 NAOKFM=F Big=F
 Integral buffers will be    131072 words long.
 Raffenetti 2 integral format.
 Two-electron integral symmetry is turned on.
 ------------------------------------------------------------------------------
 Polarizable Continuum Model (PCM)
 =================================
 Model                : PCM.
 Atomic radii         : UFF (Universal Force Field).
 Polarization charges : Total charges.
 Charge compensation  : None.
 Solution method      : On-the-fly selection.
 Cavity type          : Scaled VdW (van der Waals Surface) (Alpha=1.100).
 Cavity algorithm     : GePol (No added spheres)
                        Default sphere list used, NSphG=    5.
                        Lebedev-Laikov grids with approx.  5.0 points / Ang**2.
                        Smoothing algorithm: York/Karplus (Gamma=1.0000).
                        Polarization charges: spherical gaussians, with
                                              point-specific exponents (IZeta= 3).
                        Self-potential: point-specific (ISelfS= 7).
                        Self-field    : sphere-specific E.n sum rule (ISelfD= 2).
 1st derivatives      : Analytical E(r).r(x)/FMM algorithm (CHGder, D1EAlg=3).
                        Cavity 1st derivative terms included.
 Solvent              : Water, Eps=  78.355300 Eps(inf)=   1.777849
 ------------------------------------------------------------------------------
 Spheres list:
 ISph  on   Nord     Re0    Alpha      Xe            Ye            Ze
    1  Mg      1    1.5105  1.100     -2.046862      0.113788     -0.005231
    2   O      2    1.7500  1.100     -0.039937     -0.244953     -0.033372
    3   C      3    1.9255  1.100      1.120800     -0.106937      0.138123
    4   N      4    1.8300  1.100      2.187355      0.017522     -0.076385
    5   H      5    1.4430  1.100      2.845559      1.113132      0.035699
 ------------------------------------------------------------------------------
 One-electron integrals computed using PRISM.
 PrsmSu:  requested number of processors reduced to:  30 ShMem   1 Linda.
   1 Symmetry operations used in ECPInt.
 ECPInt:  NShTT=     435 NPrTT=    1835 LenC2=     431 LenP2D=    1498.
 LDataN:  DoStor=T MaxTD1= 4 Len=   56
 NBasis=    65 RedAO= T EigKep=  3.04D-03  NBF=    65
 NBsUse=    65 1.00D-06 EigRej= -1.00D+00 NBFU=    65
 ExpMin= 3.36D-02 ExpMax= 4.95D+03 ExpMxC= 7.45D+02 IAcc=3 IRadAn=         5 AccDes= 0.00D+00
 Harris functional with IExCor= 1009 and IRadAn=       5 diagonalized for initial guess.
 HarFok:  IExCor= 1009 AccDes= 0.00D+00 IRadAn=         5 IDoV= 1 UseB2=F ITyADJ=14
 ICtDFT=  3500011 ScaDFX=  1.000000  1.000000  1.000000  1.000000
 FoFCou: FMM=F IPFlag=           0 FMFlag=      100000 FMFlg1=           0
         NFxFlg=           0 DoJE=T BraDBF=F KetDBF=T FulRan=T
         wScrn=  0.000000 ICntrl=       500 IOpCl=  0 I1Cent=   200000004 NGrid=           0
         NMat0=    1 NMatS0=      1 NMatT0=    0 NMatD0=    1 NMtDS0=    0 NMtDT0=    0
 Petite list used in FoFCou.
 Keep R1 ints in memory in canonical form, NReq=46053231.
 Requested convergence on RMS density matrix=1.00D-08 within 128 cycles.
 Requested convergence on MAX density matrix=1.00D-06.
 Requested convergence on             energy=1.00D-06.
 No special actions if energy rises.
 Inv3:  Mode=1 IEnd=     1516563.
 Iteration    1 A*A^-1 deviation from unit magnitude is 2.89D-15 for    116.
 Iteration    1 A*A^-1 deviation from orthogonality  is 1.33D-15 for    544    497.
 Iteration    1 A^-1*A deviation from unit magnitude is 3.11D-15 for    365.
 Iteration    1 A^-1*A deviation from orthogonality  is 4.83D-15 for    382    361.
 CoulSu:  requested number of processors reduced to:  46 ShMem   1 Linda.
 Error on total polarization charges =  0.17679
 SCF Done:  E(RM062X) =  -368.398896704     A.U. after   14 cycles
            NFock= 14  Conv=0.68D-08     -V/T= 2.0049

 **********************************************************************

            Population analysis using the SCF density.

 **********************************************************************

 Orbital symmetries:
       Occupied  (A) (A) (A) (A) (A) (A) (A) (A) (A) (A) (A) (A)
                 (A) (A) (A) (A) (A)
       Virtual   (A) (A) (A) (A) (A) (A) (A) (A) (A) (A) (A) (A)
                 (A) (A) (A) (A) (A) (A) (A) (A) (A) (A) (A) (A)
                 (A) (A) (A) (A) (A) (A) (A) (A) (A) (A) (A) (A)
                 (A) (A) (A) (A) (A) (A) (A) (A) (A) (A) (A) (A)
 The electronic state is 1-A.
 Alpha  occ. eigenvalues --  -47.52205 -19.68764 -14.80402 -10.69953  -3.27236
 Alpha  occ. eigenvalues --   -1.96287  -1.96182  -1.96180  -1.23025  -1.08704
 Alpha  occ. eigenvalues --   -0.65718  -0.62253  -0.57739  -0.56474  -0.41473
 Alpha  occ. eigenvalues --   -0.39658  -0.14989
 Alpha virt. eigenvalues --   -0.01271   0.03934   0.04710   0.05095   0.10573
 Alpha virt. eigenvalues --    0.12128   0.14712   0.22449   0.22613   0.23303
 Alpha virt. eigenvalues --    0.23974   0.24352   0.33311   0.34406   0.35211
 Alpha virt. eigenvalues --    0.39752   0.45896   0.51337   0.52088   0.54723
 Alpha virt. eigenvalues --    0.66847   0.72240   0.84550   0.95140   1.02252
 Alpha virt. eigenvalues --    1.15952   1.21976   1.22391   1.39751   1.44236
 Alpha virt. eigenvalues --    1.50860   1.55808   1.58025   1.62124   1.65826
 Alpha virt. eigenvalues --    1.79931   1.93790   2.34403   2.49383   2.54092
 Alpha virt. eigenvalues --    2.68656   2.72313   2.93125   3.00974   3.40166
 Alpha virt. eigenvalues --    3.52773   3.57218   3.93771
          Condensed to atoms (all electrons):
               1          2          3          4          5
     1  Mg  12.129555   0.015619   0.001078  -0.012887   0.002337
     2  O    0.015619   7.809819   0.561037  -0.046742  -0.001054
     3  C    0.001078   0.561037   4.514533   0.690588  -0.018572
     4  N   -0.012887  -0.046742   0.690588   6.230474   0.292273
     5  H    0.002337  -0.001054  -0.018572   0.292273   0.348262
 Mulliken charges:
               1
     1  Mg  -0.135702
     2  O   -0.338681
     3  C    0.251335
     4  N   -0.153706
     5  H    0.376753
 Sum of Mulliken charges =   0.00000
 Mulliken charges with hydrogens summed into heavy atoms:
               1
     1  Mg  -0.135702
     2  O   -0.338681
     3  C    0.251335
     4  N    0.223047
 Electronic spatial extent (au):  <R**2>=            434.0961
 Charge=              0.0000 electrons
 Dipole moment (field-independent basis, Debye):
    X=              8.3619    Y=              1.7260    Z=              0.7794  Tot=              8.5736
 Quadrupole moment (field-independent basis, Debye-Ang):
   XX=            -37.1827   YY=            -28.1612   ZZ=            -30.8822
   XY=              8.5621   XZ=              0.8480   YZ=              0.0770
 Traceless Quadrupole moment (field-independent basis, Debye-Ang):
   XX=             -5.1073   YY=              3.9142   ZZ=              1.1932
   XY=              8.5621   XZ=              0.8480   YZ=              0.0770
 Octapole moment (field-independent basis, Debye-Ang**2):
  XXX=            114.8209  YYY=             -0.7535  ZZZ=              0.4946  XYY=             24.1651
  XXY=             14.0216  XXZ=              2.2587  XZZ=             15.3260  YZZ=             -1.3860
  YYZ=              0.2885  XYZ=              0.1871
 Hexadecapole moment (field-independent basis, Debye-Ang**3):
 XXXX=           -772.2819 YYYY=            -68.1577 ZZZZ=            -65.4441 XXXY=             83.2438
 XXXZ=              2.6630 YYYX=             23.4212 YYYZ=              0.2622 ZZZX=             -0.4242
 ZZZY=              0.0942 XXYY=           -113.1718 XXZZ=           -135.8669 YYZZ=            -22.9798
 XXYZ=              0.7868 YYXZ=              0.2686 ZZXY=              4.4478
 N-N= 1.093910473480D+02 E-N=-1.091195315961D+03  KE= 3.665953743417D+02
 PrsmSu:  requested number of processors reduced to:  30 ShMem   1 Linda.
   1 Symmetry operations used in ECPInt.
 ECPInt:  NShTT=     435 NPrTT=    1835 LenC2=     431 LenP2D=    1498.
 LDataN:  DoStor=T MaxTD1= 5 Len=  102
 D1PCM: PCM CHGder 1st derivatives, ID1Alg=3 FixD1E=F DoIter=F DoCFld=F I1PDM=0.
 CoulSu:  requested number of processors reduced to:  30 ShMem   1 Linda.
 CoulSu:  requested number of processors reduced to:  31 ShMem   1 Linda.
 Calling FoFJK, ICntrl=      2127 FMM=F ISym2X=0 I1Cent= 0 IOpClX= 0 NMat=1 NMatS=1 NMatT=0.
 ***** Axes restored to original set *****
 -------------------------------------------------------------------
 Center     Atomic                   Forces (Hartrees/Bohr)
 Number     Number              X              Y              Z
 -------------------------------------------------------------------
      1       12           0.006622159   -0.013863889    0.010883004
      2        8          -0.017602050   -0.027313049    0.001616380
      3        6           0.025470892   -0.178933232    0.174567269
      4        7           0.062479037    0.242399560   -0.259236511
      5        1          -0.076970037   -0.022289390    0.072169858
 -------------------------------------------------------------------
 Cartesian Forces:  Max     0.259236511 RMS     0.117202669

 GradGradGradGradGradGradGradGradGradGradGradGradGradGradGradGradGradGrad
 Berny optimization.
 FormGI is forming the generalized inverse of G from B-inverse, IUseBI=4.
 Internal  Forces:  Max     0.287530241 RMS     0.105488589
 Search for a local minimum.
 Step number   1 out of a maximum of   10
 All quantities printed in internal units (Hartrees-Bohrs-Radians)
 Mixed Optimization -- RFO/linear search
 Second derivative matrix not updated -- first step.
 The second derivative matrix:
                          R1        R2        R3        R4        A1
           R1           0.13690
           R2           0.00000   1.14738
           R3           0.00000   0.00000   1.81849
           R4           0.00000   0.00000   0.00000   0.19477
           A1           0.00000   0.00000   0.00000   0.00000   0.25000
           A2           0.00000   0.00000   0.00000   0.00000   0.00000
           A3           0.00000   0.00000   0.00000   0.00000   0.00000
           D1           0.00000   0.00000   0.00000   0.00000   0.00000
           D2           0.00000   0.00000   0.00000   0.00000   0.00000
                          A2        A3        D1        D2
           A2           0.25000
           A3           0.00000   0.16000
           D1           0.00000   0.00000   0.04583
           D2           0.00000   0.00000   0.00000   0.05726
 ITU=  0
     Eigenvalues ---    0.04583   0.05726   0.13690   0.16000   0.19477
     Eigenvalues ---    0.25000   0.25000   1.14738   1.81849
 RFO step:  Lambda=-9.81327585D-02 EMin= 4.58307865D-02
 Linear search not attempted -- first point.
 Maximum step size (   0.300) exceeded in Quadratic search.
    -- Step size scaled by   0.667
 Iteration  1 RMS(Cart)=  0.07666426 RMS(Int)=  0.02953428
 Iteration  2 RMS(Cart)=  0.01652089 RMS(Int)=  0.00074989
 Iteration  3 RMS(Cart)=  0.00053856 RMS(Int)=  0.00000112
 Iteration  4 RMS(Cart)=  0.00000067 RMS(Int)=  0.00000000
 Variable       Old X    -DE/DX   Delta X   Delta X   Delta X     New X
                                 (Linear)    (Quad)   (Total)
    R1        3.85302   0.01885   0.00000   0.05345   0.05345   3.90647
    R2        2.23257   0.03311   0.00000   0.01772   0.01772   2.25029
    R3        2.06927   0.28753   0.00000   0.10000   0.10000   2.16926
    R4        2.42457  -0.10771   0.00000  -0.24512  -0.24512   2.17945
    A1        2.80689  -0.00138   0.00000  -0.00264  -0.00264   2.80425
    A2        2.79874   0.06476   0.00000   0.12400   0.12400   2.92274
    A3        2.18906   0.01427   0.00000   0.03684   0.03684   2.22591
    D1       -2.06002  -0.00003   0.00000  -0.00012  -0.00012  -2.06014
    D2        1.83136   0.00492   0.00000   0.02112   0.02112   1.85248
         Item               Value     Threshold  Converged?
 Maximum Force            0.287530     0.000450     NO 
 RMS     Force            0.105489     0.000300     NO 
 Maximum Displacement     0.160371     0.001800     NO 
 RMS     Displacement     0.084818     0.001200     NO 
 Predicted change in Energy=-4.804914D-02
 GradGradGradGradGradGradGradGradGradGradGradGradGradGradGradGradGradGrad

                          Input orientation:                          
 ---------------------------------------------------------------------
 Center     Atomic      Atomic             Coordinates (Angstroms)
 Number     Number       Type             X           Y           Z
 ---------------------------------------------------------------------
      1         12           0       10.999202   -4.248129   27.079848
      2          8           0       10.306443   -2.733252   25.855668
      3          6           0       10.211128   -1.993754   24.927188
      4          7           0       10.164892   -1.103773   24.203635
      5          1           0       10.951095   -0.795093   23.418311
 ---------------------------------------------------------------------
                    Distance matrix (angstroms):
                    1          2          3          4          5
     1  Mg   0.000000
     2  O    2.067216   0.000000
     3  C    3.215153   1.190805   0.000000
     4  N    4.342309   2.324747   1.147925   0.000000
     5  H    5.033152   3.180054   2.064231   1.153314   0.000000
 Stoichiometry    CHMgNO
 Framework group  C1[X(CHMgNO)]
 Deg. of freedom     9
 Full point group                 C1      NOp   1
 Largest Abelian subgroup         C1      NOp   1
 Largest concise Abelian subgroup C1      NOp   1
                         Standard orientation:                         
 ---------------------------------------------------------------------
 Center     Atomic      Atomic             Coordinates (Angstroms)
 Number     Number       Type             X           Y           Z
 ---------------------------------------------------------------------
      1         12           0       -2.084070    0.113773   -0.001165
      2          8           0       -0.050084   -0.254252   -0.030174
      3          6           0        1.123254   -0.090828    0.090607
      4          7           0        2.257241    0.029623   -0.040909
      5          1           0        2.869306    1.006347   -0.001910
 ---------------------------------------------------------------------
 Rotational constants (GHZ):         197.7887437           2.5387951           2.5100203
 Standard basis: def2SVP (5D, 7F)
 There are    69 symmetry adapted cartesian basis functions of A   symmetry.
 There are    65 symmetry adapted basis functions of A   symmetry.
    65 basis functions,   119 primitive gaussians,    69 cartesian basis functions
    17 alpha electrons       17 beta electrons
       nuclear repulsion energy       107.4436190456 Hartrees.
 NAtoms=    5 NActive=    5 NUniq=    5 SFac= 1.00D+00 NAtFMM=   60 NAOKFM=F Big=F
 Integral buffers will be    131072 words long.
 Raffenetti 2 integral format.
 Two-electron integral symmetry is turned on.
 ------------------------------------------------------------------------------
 Polarizable Continuum Model (PCM)
 =================================
 Model                : PCM.
 Atomic radii         : UFF (Universal Force Field).
 Polarization charges : Total charges.
 Charge compensation  : None.
 Solution method      : On-the-fly selection.
 Cavity type          : Scaled VdW (van der Waals Surface) (Alpha=1.100).
 Cavity algorithm     : GePol (No added spheres)
                        Default sphere list used, NSphG=    5.
                        Lebedev-Laikov grids with approx.  5.0 points / Ang**2.
                        Smoothing algorithm: York/Karplus (Gamma=1.0000).
                        Polarization charges: spherical gaussians, with
                                              point-specific exponents (IZeta= 3).
                        Self-potential: point-specific (ISelfS= 7).
                        Self-field    : sphere-specific E.n sum rule (ISelfD= 2).
 1st derivatives      : Analytical E(r).r(x)/FMM algorithm (CHGder, D1EAlg=3).
                        Cavity 1st derivative terms included.
 Solvent              : Water, Eps=  78.355300 Eps(inf)=   1.777849
 ------------------------------------------------------------------------------
 Spheres list:
 ISph  on   Nord     Re0    Alpha      Xe            Ye            Ze
    1  Mg      1    1.5105  1.100     -2.084070      0.113773     -0.001165
    2   O      2    1.7500  1.100     -0.050084     -0.254252     -0.030174
    3   C      3    1.9255  1.100      1.123254     -0.090828      0.090607
    4   N      4    1.8300  1.100      2.257241      0.029623     -0.040909
    5   H      5    1.4430  1.100      2.869306      1.006347     -0.001910
 ------------------------------------------------------------------------------
 One-electron integrals computed using PRISM.
 PrsmSu:  requested number of processors reduced to:  30 ShMem   1 Linda.
   1 Symmetry operations used in ECPInt.
 ECPInt:  NShTT=     435 NPrTT=    1835 LenC2=     431 LenP2D=    1488.
 LDataN:  DoStor=T MaxTD1= 4 Len=   56
 NBasis=    65 RedAO= T EigKep=  2.92D-03  NBF=    65
 NBsUse=    65 1.00D-06 EigRej= -1.00D+00 NBFU=    65
 Initial guess from the checkpoint file:  "/home/zz1/proj/gauss/new/chk/Mg-ESAGAI-4/166.chk"
 B after Tr=     0.000000    0.000000    0.000000
         Rot=    0.999994    0.003424    0.000222    0.000045 Ang=   0.39 deg.
 ExpMin= 3.36D-02 ExpMax= 4.95D+03 ExpMxC= 7.45D+02 IAcc=3 IRadAn=         5 AccDes= 0.00D+00
 Harris functional with IExCor= 1009 and IRadAn=       5 diagonalized for initial guess.
 HarFok:  IExCor= 1009 AccDes= 0.00D+00 IRadAn=         5 IDoV= 1 UseB2=F ITyADJ=14
 ICtDFT=  3500011 ScaDFX=  1.000000  1.000000  1.000000  1.000000
 FoFCou: FMM=F IPFlag=           0 FMFlag=      100000 FMFlg1=           0
         NFxFlg=           0 DoJE=T BraDBF=F KetDBF=T FulRan=T
         wScrn=  0.000000 ICntrl=       500 IOpCl=  0 I1Cent=   200000004 NGrid=           0
         NMat0=    1 NMatS0=      1 NMatT0=    0 NMatD0=    1 NMtDS0=    0 NMtDT0=    0
 Petite list used in FoFCou.
 Keep R1 ints in memory in canonical form, NReq=46053231.
 Requested convergence on RMS density matrix=1.00D-08 within 128 cycles.
 Requested convergence on MAX density matrix=1.00D-06.
 Requested convergence on             energy=1.00D-06.
 No special actions if energy rises.
 Inv3:  Mode=1 IEnd=     1525107.
 Iteration    1 A*A^-1 deviation from unit magnitude is 2.89D-15 for      5.
 Iteration    1 A*A^-1 deviation from orthogonality  is 1.33D-15 for    193    127.
 Iteration    1 A^-1*A deviation from unit magnitude is 2.89D-15 for    571.
 Iteration    1 A^-1*A deviation from orthogonality  is 2.22D-15 for    616    376.
 CoulSu:  requested number of processors reduced to:  46 ShMem   1 Linda.
 Error on total polarization charges =  0.17429
 SCF Done:  E(RM062X) =  -368.449874227     A.U. after   14 cycles
            NFock= 14  Conv=0.65D-08     -V/T= 2.0059

 **********************************************************************

            Population analysis using the SCF density.

 **********************************************************************

 Orbital symmetries:
       Occupied  (A) (A) (A) (A) (A) (A) (A) (A) (A) (A) (A) (A)
                 (A) (A) (A) (A) (A)
       Virtual   (A) (A) (A) (A) (A) (A) (A) (A) (A) (A) (A) (A)
                 (A) (A) (A) (A) (A) (A) (A) (A) (A) (A) (A) (A)
                 (A) (A) (A) (A) (A) (A) (A) (A) (A) (A) (A) (A)
                 (A) (A) (A) (A) (A) (A) (A) (A) (A) (A) (A) (A)
 The electronic state is 1-A.
 Alpha  occ. eigenvalues --  -47.52344 -19.70023 -14.80920 -10.71814  -3.27345
 Alpha  occ. eigenvalues --   -1.96390  -1.96279  -1.96278  -1.23185  -1.07219
 Alpha  occ. eigenvalues --   -0.67525  -0.63639  -0.57178  -0.56483  -0.41561
 Alpha  occ. eigenvalues --   -0.39742  -0.15127
 Alpha virt. eigenvalues --    0.01220   0.04064   0.04868   0.05274   0.09963
 Alpha virt. eigenvalues --    0.11747   0.13696   0.21383   0.22594   0.22618
 Alpha virt. eigenvalues --    0.23855   0.23950   0.32289   0.34303   0.34567
 Alpha virt. eigenvalues --    0.39315   0.45511   0.52232   0.53061   0.57501
 Alpha virt. eigenvalues --    0.63640   0.73522   0.83948   0.94067   0.99071
 Alpha virt. eigenvalues --    1.12860   1.19602   1.21936   1.39765   1.42992
 Alpha virt. eigenvalues --    1.53058   1.59105   1.62341   1.62956   1.67325
 Alpha virt. eigenvalues --    1.71907   2.01963   2.37875   2.49156   2.55363
 Alpha virt. eigenvalues --    2.68174   2.69924   2.85600   2.98488   3.35847
 Alpha virt. eigenvalues --    3.45359   3.57741   3.88253
          Condensed to atoms (all electrons):
               1          2          3          4          5
     1  Mg  12.131763   0.009326  -0.001158  -0.011670   0.001596
     2  O    0.009326   7.778242   0.558344  -0.028934  -0.000683
     3  C   -0.001158   0.558344   4.505920   0.684524  -0.021288
     4  N   -0.011670  -0.028934   0.684524   6.173719   0.332008
     5  H    0.001596  -0.000683  -0.021288   0.332008   0.366225
 Mulliken charges:
               1
     1  Mg  -0.129857
     2  O   -0.316294
     3  C    0.273657
     4  N   -0.149647
     5  H    0.322142
 Sum of Mulliken charges =   0.00000
 Mulliken charges with hydrogens summed into heavy atoms:
               1
     1  Mg  -0.129857
     2  O   -0.316294
     3  C    0.273657
     4  N    0.172494
 Electronic spatial extent (au):  <R**2>=            449.0576
 Charge=             -0.0000 electrons
 Dipole moment (field-independent basis, Debye):
    X=              7.7524    Y=              1.4875    Z=              0.4423  Tot=              7.9062
 Quadrupole moment (field-independent basis, Debye-Ang):
   XX=            -38.0015   YY=            -28.7461   ZZ=            -30.9039
   XY=              7.5949   XZ=              0.3539   YZ=             -0.0265
 Traceless Quadrupole moment (field-independent basis, Debye-Ang):
   XX=             -5.4510   YY=              3.8044   ZZ=              1.6466
   XY=              7.5949   XZ=              0.3539   YZ=             -0.0265
 Octapole moment (field-independent basis, Debye-Ang**2):
  XXX=            110.5841  YYY=             -1.5047  ZZZ=              0.1944  XYY=             22.0307
  XXY=             11.9713  XXZ=              0.7639  XZZ=             14.9746  YZZ=             -1.2819
  YYZ=              0.0637  XYZ=             -0.0670
 Hexadecapole moment (field-independent basis, Debye-Ang**3):
 XXXX=           -798.3846 YYYY=            -68.1667 ZZZZ=            -64.3574 XXXY=             76.1090
 XXXZ=              0.1171 YYYX=             20.1615 YYYZ=              0.0268 ZZZX=             -0.2919
 ZZZY=              0.0185 XXYY=           -121.2698 XXZZ=           -138.9566 YYZZ=            -22.5481
 XXYZ=             -0.0984 YYXZ=             -0.0688 ZZXY=              4.3523
 N-N= 1.074436190456D+02 E-N=-1.086950240893D+03  KE= 3.662946673856D+02
 PrsmSu:  requested number of processors reduced to:  30 ShMem   1 Linda.
   1 Symmetry operations used in ECPInt.
 ECPInt:  NShTT=     435 NPrTT=    1835 LenC2=     431 LenP2D=    1488.
 LDataN:  DoStor=T MaxTD1= 5 Len=  102
 D1PCM: PCM CHGder 1st derivatives, ID1Alg=3 FixD1E=F DoIter=F DoCFld=F I1PDM=0.
 CoulSu:  requested number of processors reduced to:  30 ShMem   1 Linda.
 CoulSu:  requested number of processors reduced to:  31 ShMem   1 Linda.
 Calling FoFJK, ICntrl=      2127 FMM=F ISym2X=0 I1Cent= 0 IOpClX= 0 NMat=1 NMatS=1 NMatT=0.
 ***** Axes restored to original set *****
 -------------------------------------------------------------------
 Center     Atomic                   Forces (Hartrees/Bohr)
 Number     Number              X              Y              Z
 -------------------------------------------------------------------
      1       12           0.006412832   -0.013837421    0.010902404
      2        8          -0.017153453    0.006302800   -0.022828811
      3        6           0.020371715   -0.067919999    0.092782719
      4        7           0.048941313    0.094431882   -0.132905380
      5        1          -0.058572407   -0.018977262    0.052049069
 -------------------------------------------------------------------
 Cartesian Forces:  Max     0.132905380 RMS     0.057919363

 GradGradGradGradGradGradGradGradGradGradGradGradGradGradGradGradGradGrad
 Berny optimization.
 Using GEDIIS/GDIIS optimizer.
 FormGI is forming the generalized inverse of G from B-inverse, IUseBI=4.
 Internal  Forces:  Max     0.109857539 RMS     0.047393811
 Search for a local minimum.
 Step number   2 out of a maximum of   10
 All quantities printed in internal units (Hartrees-Bohrs-Radians)
 Mixed Optimization -- RFO/linear search
 Update second derivatives using D2CorX and points    1    2
 DE= -5.10D-02 DEPred=-4.80D-02 R= 1.06D+00
 TightC=F SS=  1.41D+00  RLast= 3.01D-01 DXNew= 5.0454D-01 9.0221D-01
 Trust test= 1.06D+00 RLast= 3.01D-01 DXMaxT set to 5.05D-01
 The second derivative matrix:
                          R1        R2        R3        R4        A1
           R1           0.13536
           R2          -0.00416   1.18665
           R3          -0.03776   0.12915   1.95110
           R4           0.00997  -0.00816   0.08371   0.15462
           A1           0.00014   0.00003   0.00181  -0.00065   0.24999
           A2          -0.00644   0.02255   0.02506   0.01389   0.00030
           A3          -0.00123   0.00132  -0.00891   0.00474   0.00008
           D1           0.00000  -0.00002  -0.00007   0.00001   0.00000
           D2          -0.00025   0.00108   0.00191   0.00040   0.00001
                          A2        A3        D1        D2
           A2           0.25470
           A3          -0.00147   0.15944
           D1          -0.00001  -0.00000   0.04583
           D2           0.00034  -0.00004  -0.00000   0.05728
 ITU=  1  0
 Use linear search instead of GDIIS.
     Eigenvalues ---    0.04583   0.05728   0.12692   0.15359   0.16224
     Eigenvalues ---    0.24999   0.25564   1.16624   1.97725
 RFO step:  Lambda=-1.87010492D-02 EMin= 4.58307902D-02
 Quartic linear search produced a step of  1.18604.
 Iteration  1 RMS(Cart)=  0.03882772 RMS(Int)=  0.16222481
 Iteration  2 RMS(Cart)=  0.04767154 RMS(Int)=  0.10841224
 Iteration  3 RMS(Cart)=  0.05159529 RMS(Int)=  0.03941572
 Iteration  4 RMS(Cart)=  0.03299987 RMS(Int)=  0.00009376
 Iteration  5 RMS(Cart)=  0.00010588 RMS(Int)=  0.00000002
 Iteration  6 RMS(Cart)=  0.00000001 RMS(Int)=  0.00000000
 Variable       Old X    -DE/DX   Delta X   Delta X   Delta X     New X
                                 (Linear)    (Quad)   (Total)
    R1        3.90647   0.01876   0.06340   0.12021   0.18361   4.09008
    R2        2.25029  -0.00548   0.02102  -0.04023  -0.01921   2.23109
    R3        2.16926   0.10986   0.11860  -0.03689   0.08171   2.25098
    R4        2.17945  -0.08048  -0.29072  -0.24222  -0.53295   1.64650
    A1        2.80425  -0.00111  -0.00313  -0.00316  -0.00629   2.79796
    A2        2.92274   0.03407   0.14707   0.00446   0.15153   3.07427
    A3        2.22591   0.01067   0.04370   0.03761   0.08131   2.30721
    D1       -2.06014  -0.00001  -0.00015   0.00016   0.00002  -2.06012
    D2        1.85248   0.00357   0.02505   0.02361   0.04866   1.90113
         Item               Value     Threshold  Converged?
 Maximum Force            0.109858     0.000450     NO 
 RMS     Force            0.047394     0.000300     NO 
 Maximum Displacement     0.222783     0.001800     NO 
 RMS     Displacement     0.147491     0.001200     NO 
 Predicted change in Energy=-3.395568D-02
 GradGradGradGradGradGradGradGradGradGradGradGradGradGradGradGradGradGrad

                          Input orientation:                          
 ---------------------------------------------------------------------
 Center     Atomic      Atomic             Coordinates (Angstroms)
 Number     Number       Type             X           Y           Z
 ---------------------------------------------------------------------
      1         12           0       10.993506   -4.300071   27.121732
      2          8           0       10.298865   -2.713441   25.823809
      3          6           0       10.268682   -1.938445   24.933651
      4          7           0       10.238503   -1.097873   24.090203
      5          1           0       10.833204   -0.824170   23.515254
 ---------------------------------------------------------------------
                    Distance matrix (angstroms):
                    1          2          3          4          5
     1  Mg   0.000000
     2  O    2.164376   0.000000
     3  C    3.300052   1.180640   0.000000
     4  N    4.473730   2.370462   1.191166   0.000000
     5  H    5.011413   3.030559   1.890011   0.871292   0.000000
 Stoichiometry    CHMgNO
 Framework group  C1[X(CHMgNO)]
 Deg. of freedom     9
 Full point group                 C1      NOp   1
 Largest Abelian subgroup         C1      NOp   1
 Largest concise Abelian subgroup C1      NOp   1
                         Standard orientation:                         
 ---------------------------------------------------------------------
 Center     Atomic      Atomic             Coordinates (Angstroms)
 Number     Number       Type             X           Y           Z
 ---------------------------------------------------------------------
      1         12           0       -2.149321    0.114215    0.002243
      2          8           0       -0.020098   -0.273780   -0.017609
      3          6           0        1.144581   -0.085599    0.027357
      4          7           0        2.324250    0.076779   -0.002452
      5          1           0        2.815401    0.795796   -0.033017
 ---------------------------------------------------------------------
 Rotational constants (GHZ):         219.5392274           2.4055446           2.3798051
 Standard basis: def2SVP (5D, 7F)
 There are    69 symmetry adapted cartesian basis functions of A   symmetry.
 There are    65 symmetry adapted basis functions of A   symmetry.
    65 basis functions,   119 primitive gaussians,    69 cartesian basis functions
    17 alpha electrons       17 beta electrons
       nuclear repulsion energy       106.2223891415 Hartrees.
 NAtoms=    5 NActive=    5 NUniq=    5 SFac= 1.00D+00 NAtFMM=   60 NAOKFM=F Big=F
 Integral buffers will be    131072 words long.
 Raffenetti 2 integral format.
 Two-electron integral symmetry is turned on.
 ------------------------------------------------------------------------------
 Polarizable Continuum Model (PCM)
 =================================
 Model                : PCM.
 Atomic radii         : UFF (Universal Force Field).
 Polarization charges : Total charges.
 Charge compensation  : None.
 Solution method      : On-the-fly selection.
 Cavity type          : Scaled VdW (van der Waals Surface) (Alpha=1.100).
 Cavity algorithm     : GePol (No added spheres)
                        Default sphere list used, NSphG=    5.
                        Lebedev-Laikov grids with approx.  5.0 points / Ang**2.
                        Smoothing algorithm: York/Karplus (Gamma=1.0000).
                        Polarization charges: spherical gaussians, with
                                              point-specific exponents (IZeta= 3).
                        Self-potential: point-specific (ISelfS= 7).
                        Self-field    : sphere-specific E.n sum rule (ISelfD= 2).
 1st derivatives      : Analytical E(r).r(x)/FMM algorithm (CHGder, D1EAlg=3).
                        Cavity 1st derivative terms included.
 Solvent              : Water, Eps=  78.355300 Eps(inf)=   1.777849
 ------------------------------------------------------------------------------
 Spheres list:
 ISph  on   Nord     Re0    Alpha      Xe            Ye            Ze
    1  Mg      1    1.5105  1.100     -2.149321      0.114215      0.002243
    2   O      2    1.7500  1.100     -0.020098     -0.273780     -0.017609
    3   C      3    1.9255  1.100      1.144581     -0.085599      0.027357
    4   N      4    1.8300  1.100      2.324250      0.076779     -0.002452
    5   H      5    1.4430  1.100      2.815401      0.795796     -0.033017
 ------------------------------------------------------------------------------
 One-electron integrals computed using PRISM.
 PrsmSu:  requested number of processors reduced to:  30 ShMem   1 Linda.
   1 Symmetry operations used in ECPInt.
 ECPInt:  NShTT=     435 NPrTT=    1835 LenC2=     430 LenP2D=    1478.
 LDataN:  DoStor=T MaxTD1= 4 Len=   56
 NBasis=    65 RedAO= T EigKep=  2.80D-03  NBF=    65
 NBsUse=    65 1.00D-06 EigRej= -1.00D+00 NBFU=    65
 Initial guess from the checkpoint file:  "/home/zz1/proj/gauss/new/chk/Mg-ESAGAI-4/166.chk"
 B after Tr=    -0.000000   -0.000000   -0.000000
         Rot=    0.999998    0.001325    0.000074   -0.001739 Ang=   0.25 deg.
 ExpMin= 3.36D-02 ExpMax= 4.95D+03 ExpMxC= 7.45D+02 IAcc=3 IRadAn=         5 AccDes= 0.00D+00
 Harris functional with IExCor= 1009 and IRadAn=       5 diagonalized for initial guess.
 HarFok:  IExCor= 1009 AccDes= 0.00D+00 IRadAn=         5 IDoV= 1 UseB2=F ITyADJ=14
 ICtDFT=  3500011 ScaDFX=  1.000000  1.000000  1.000000  1.000000
 FoFCou: FMM=F IPFlag=           0 FMFlag=      100000 FMFlg1=           0
         NFxFlg=           0 DoJE=T BraDBF=F KetDBF=T FulRan=T
         wScrn=  0.000000 ICntrl=       500 IOpCl=  0 I1Cent=   200000004 NGrid=           0
         NMat0=    1 NMatS0=      1 NMatT0=    0 NMatD0=    1 NMtDS0=    0 NMtDT0=    0
 Petite list used in FoFCou.
 Keep R1 ints in memory in canonical form, NReq=46053231.
 Requested convergence on RMS density matrix=1.00D-08 within 128 cycles.
 Requested convergence on MAX density matrix=1.00D-06.
 Requested convergence on             energy=1.00D-06.
 No special actions if energy rises.
 Inv3:  Mode=1 IEnd=     1555200.
 Iteration    1 A*A^-1 deviation from unit magnitude is 2.66D-15 for    376.
 Iteration    1 A*A^-1 deviation from orthogonality  is 2.01D-15 for    261    213.
 Iteration    1 A^-1*A deviation from unit magnitude is 2.44D-15 for     80.
 Iteration    1 A^-1*A deviation from orthogonality  is 1.67D-15 for    622    249.
 CoulSu:  requested number of processors reduced to:  46 ShMem   1 Linda.
 Error on total polarization charges =  0.16850
 SCF Done:  E(RM062X) =  -368.449502802     A.U. after   15 cycles
            NFock= 15  Conv=0.24D-08     -V/T= 2.0053

 **********************************************************************

            Population analysis using the SCF density.

 **********************************************************************

 Orbital symmetries:
       Occupied  (A) (A) (A) (A) (A) (A) (A) (A) (A) (A) (A) (A)
                 (A) (A) (A) (A) (A)
       Virtual   (A) (A) (A) (A) (A) (A) (A) (A) (A) (A) (A) (A)
                 (A) (A) (A) (A) (A) (A) (A) (A) (A) (A) (A) (A)
                 (A) (A) (A) (A) (A) (A) (A) (A) (A) (A) (A) (A)
                 (A) (A) (A) (A) (A) (A) (A) (A) (A) (A) (A) (A)
 The electronic state is 1-A.
 Alpha  occ. eigenvalues --  -47.52525 -19.71060 -14.79527 -10.73190  -3.27444
 Alpha  occ. eigenvalues --   -1.96461  -1.96363  -1.96362  -1.24323  -1.07413
 Alpha  occ. eigenvalues --   -0.74811  -0.64831  -0.57328  -0.56949  -0.41439
 Alpha  occ. eigenvalues --   -0.39725  -0.15415
 Alpha virt. eigenvalues --    0.03392   0.04087   0.05689   0.05789   0.09240
 Alpha virt. eigenvalues --    0.11670   0.14304   0.20435   0.22627   0.22630
 Alpha virt. eigenvalues --    0.23575   0.23669   0.31807   0.34217   0.34312
 Alpha virt. eigenvalues --    0.37896   0.45294   0.52161   0.52775   0.60880
 Alpha virt. eigenvalues --    0.75097   0.80884   0.84106   0.94020   0.95405
 Alpha virt. eigenvalues --    1.11447   1.17344   1.20847   1.39656   1.41456
 Alpha virt. eigenvalues --    1.55535   1.57771   1.65501   1.70906   1.74301
 Alpha virt. eigenvalues --    1.78433   2.42142   2.43226   2.54733   2.66077
 Alpha virt. eigenvalues --    2.68083   2.73647   2.79620   3.19738   3.39200
 Alpha virt. eigenvalues --    3.44483   3.78424   3.93063
          Condensed to atoms (all electrons):
               1          2          3          4          5
     1  Mg  12.126994   0.002172  -0.005477  -0.009379   0.000692
     2  O    0.002172   7.697364   0.578498  -0.018430  -0.000256
     3  C   -0.005477   0.578498   4.502795   0.680658  -0.037416
     4  N   -0.009379  -0.018430   0.680658   5.953105   0.430629
     5  H    0.000692  -0.000256  -0.037416   0.430629   0.476361
 Mulliken charges:
               1
     1  Mg  -0.115002
     2  O   -0.259347
     3  C    0.280942
     4  N   -0.036583
     5  H    0.129990
 Sum of Mulliken charges =   0.00000
 Mulliken charges with hydrogens summed into heavy atoms:
               1
     1  Mg  -0.115002
     2  O   -0.259347
     3  C    0.280942
     4  N    0.093407
 Electronic spatial extent (au):  <R**2>=            468.2163
 Charge=              0.0000 electrons
 Dipole moment (field-independent basis, Debye):
    X=              6.3194    Y=              0.9495    Z=              0.0521  Tot=              6.3905
 Quadrupole moment (field-independent basis, Debye-Ang):
   XX=            -39.0870   YY=            -29.2991   ZZ=            -30.5167
   XY=              5.4766   XZ=             -0.1075   YZ=             -0.0803
 Traceless Quadrupole moment (field-independent basis, Debye-Ang):
   XX=             -6.1194   YY=              3.6685   ZZ=              2.4509
   XY=              5.4766   XZ=             -0.1075   YZ=             -0.0803
 Octapole moment (field-independent basis, Debye-Ang**2):
  XXX=             97.0292  YYY=             -2.4758  ZZZ=             -0.1095  XYY=             18.7552
  XXY=              6.8307  XXZ=             -0.5761  XZZ=             14.6836  YZZ=             -1.1292
  YYZ=             -0.0728  XYZ=             -0.1711
 Hexadecapole moment (field-independent basis, Debye-Ang**3):
 XXXX=           -832.9693 YYYY=            -66.9276 ZZZZ=            -62.1420 XXXY=             57.0558
 XXXZ=             -1.6993 YYYX=             15.3139 YYYZ=             -0.0828 ZZZX=             -0.1327
 ZZZY=             -0.0460 XXYY=           -131.7928 XXZZ=           -140.6919 YYZZ=            -21.6599
 XXYZ=             -0.4873 YYXZ=             -0.1495 ZZXY=              4.1742
 N-N= 1.062223891415D+02 E-N=-1.084370337920D+03  KE= 3.665029065481D+02
 PrsmSu:  requested number of processors reduced to:  30 ShMem   1 Linda.
   1 Symmetry operations used in ECPInt.
 ECPInt:  NShTT=     435 NPrTT=    1835 LenC2=     430 LenP2D=    1478.
 LDataN:  DoStor=T MaxTD1= 5 Len=  102
 D1PCM: PCM CHGder 1st derivatives, ID1Alg=3 FixD1E=F DoIter=F DoCFld=F I1PDM=0.
 CoulSu:  requested number of processors reduced to:  30 ShMem   1 Linda.
 CoulSu:  requested number of processors reduced to:  31 ShMem   1 Linda.
 Calling FoFJK, ICntrl=      2127 FMM=F ISym2X=0 I1Cent= 0 IOpClX= 0 NMat=1 NMatS=1 NMatT=0.
 ***** Axes restored to original set *****
 -------------------------------------------------------------------
 Center     Atomic                   Forces (Hartrees/Bohr)
 Number     Number              X              Y              Z
 -------------------------------------------------------------------
      1       12           0.005035314   -0.011324347    0.009170212
      2        8          -0.013639184    0.015201991   -0.016926407
      3        6           0.011443888    0.000218400    0.008668667
      4        7          -0.139447627   -0.072862434    0.138689482
      5        1           0.136607610    0.068766390   -0.139601954
 -------------------------------------------------------------------
 Cartesian Forces:  Max     0.139601954 RMS     0.076601124

 GradGradGradGradGradGradGradGradGradGradGradGradGradGradGradGradGradGrad
 Berny optimization.
 Using GEDIIS/GDIIS optimizer.
 FormGI is forming the generalized inverse of G from B-inverse, IUseBI=4.
 Internal  Forces:  Max     0.206917377 RMS     0.069349703
 Search for a local minimum.
 Step number   3 out of a maximum of   10
 All quantities printed in internal units (Hartrees-Bohrs-Radians)
 Mixed Optimization -- RFO/linear search
 Update second derivatives using D2CorX and points    1    3    2
 DE=  3.71D-04 DEPred=-3.40D-02 R=-1.09D-02
 Trust test=-1.09D-02 RLast= 5.97D-01 DXMaxT set to 2.52D-01
 The second derivative matrix:
                          R1        R2        R3        R4        A1
           R1           0.13112
           R2          -0.00268   1.18624
           R3          -0.06583   0.14122   1.81317
           R4           0.02410  -0.02008   0.03068   0.55704
           A1           0.00041  -0.00007   0.00363  -0.00158   0.24997
           A2          -0.01466   0.02598  -0.01754   0.00504   0.00084
           A3          -0.00381   0.00216  -0.02725   0.01719   0.00025
           D1           0.00000  -0.00002  -0.00007   0.00004  -0.00000
           D2          -0.00096   0.00138  -0.00182  -0.00019   0.00006
                          A2        A3        D1        D2
           A2           0.24168
           A3          -0.00679   0.15790
           D1          -0.00001   0.00000   0.04583
           D2          -0.00079  -0.00050  -0.00000   0.05718
 ITU= -1  1  0
 Use linear search instead of GDIIS.
     Eigenvalues ---    0.04583   0.05715   0.12349   0.15762   0.24316
     Eigenvalues ---    0.25005   0.55783   1.15808   1.84692
 RFO step:  Lambda=-1.94946835D-02 EMin= 4.58307901D-02
 Quartic linear search produced a step of -0.43728.
 Maximum step size (   0.252) exceeded in Quadratic search.
    -- Step size scaled by   0.791
 Iteration  1 RMS(Cart)=  0.03904953 RMS(Int)=  0.06066635
 Iteration  2 RMS(Cart)=  0.05552486 RMS(Int)=  0.01066413
 Iteration  3 RMS(Cart)=  0.00179791 RMS(Int)=  0.00004405
 Iteration  4 RMS(Cart)=  0.00005323 RMS(Int)=  0.00000001
 Iteration  5 RMS(Cart)=  0.00000000 RMS(Int)=  0.00000000
 Variable       Old X    -DE/DX   Delta X   Delta X   Delta X     New X
                                 (Linear)    (Quad)   (Total)
    R1        4.09008   0.01544  -0.08029   0.20008   0.11979   4.20987
    R2        2.23109  -0.00862   0.00840  -0.01156  -0.00316   2.22792
    R3        2.25098  -0.00217  -0.03573   0.03355  -0.00219   2.24879
    R4        1.64650   0.20692   0.23305   0.03055   0.26359   1.91010
    A1        2.79796  -0.00090   0.00275  -0.00563  -0.00288   2.79508
    A2        3.07427   0.00536  -0.06626   0.11284   0.04658   3.12085
    A3        2.30721   0.01102  -0.03555   0.09271   0.05716   2.36437
    D1       -2.06012   0.00002  -0.00001   0.00012   0.00011  -2.06001
    D2        1.90113   0.00120  -0.02128   0.07425   0.05297   1.95411
         Item               Value     Threshold  Converged?
 Maximum Force            0.206917     0.000450     NO 
 RMS     Force            0.069350     0.000300     NO 
 Maximum Displacement     0.177818     0.001800     NO 
 RMS     Displacement     0.095858     0.001200     NO 
 Predicted change in Energy=-3.512887D-02
 GradGradGradGradGradGradGradGradGradGradGradGradGradGradGradGradGradGrad

                          Input orientation:                          
 ---------------------------------------------------------------------
 Center     Atomic      Atomic             Coordinates (Angstroms)
 Number     Number       Type             X           Y           Z
 ---------------------------------------------------------------------
      1         12           0       11.014847   -4.350468   27.165368
      2          8           0       10.274081   -2.725535   25.833523
      3          6           0       10.247556   -1.930729   24.963155
      4          7           0       10.218844   -1.110511   24.101447
      5          1           0       10.877432   -0.756757   23.421157
 ---------------------------------------------------------------------
                    Distance matrix (angstroms):
                    1          2          3          4          5
     1  Mg   0.000000
     2  O    2.227769   0.000000
     3  C    3.360598   1.178966   0.000000
     4  N    4.529741   2.368848   1.190009   0.000000
     5  H    5.191605   3.171692   2.037820   1.010779   0.000000
 Stoichiometry    CHMgNO
 Framework group  C1[X(CHMgNO)]
 Deg. of freedom     9
 Full point group                 C1      NOp   1
 Largest Abelian subgroup         C1      NOp   1
 Largest concise Abelian subgroup C1      NOp   1
                         Standard orientation:                         
 ---------------------------------------------------------------------
 Center     Atomic      Atomic             Coordinates (Angstroms)
 Number     Number       Type             X           Y           Z
 ---------------------------------------------------------------------
      1         12           0       -2.190489    0.122343    0.002213
      2          8           0       -0.000992   -0.288628   -0.010520
      3          6           0        1.162709   -0.100472    0.008419
      4          7           0        2.339047    0.079355    0.005079
      5          1           0        2.944216    0.888255   -0.028466
 ---------------------------------------------------------------------
 Rotational constants (GHZ):         190.2824457           2.3335619           2.3053664
 Standard basis: def2SVP (5D, 7F)
 There are    69 symmetry adapted cartesian basis functions of A   symmetry.
 There are    65 symmetry adapted basis functions of A   symmetry.
    65 basis functions,   119 primitive gaussians,    69 cartesian basis functions
    17 alpha electrons       17 beta electrons
       nuclear repulsion energy       104.4661428570 Hartrees.
 NAtoms=    5 NActive=    5 NUniq=    5 SFac= 1.00D+00 NAtFMM=   60 NAOKFM=F Big=F
 Integral buffers will be    131072 words long.
 Raffenetti 2 integral format.
 Two-electron integral symmetry is turned on.
 ------------------------------------------------------------------------------
 Polarizable Continuum Model (PCM)
 =================================
 Model                : PCM.
 Atomic radii         : UFF (Universal Force Field).
 Polarization charges : Total charges.
 Charge compensation  : None.
 Solution method      : On-the-fly selection.
 Cavity type          : Scaled VdW (van der Waals Surface) (Alpha=1.100).
 Cavity algorithm     : GePol (No added spheres)
                        Default sphere list used, NSphG=    5.
                        Lebedev-Laikov grids with approx.  5.0 points / Ang**2.
                        Smoothing algorithm: York/Karplus (Gamma=1.0000).
                        Polarization charges: spherical gaussians, with
                                              point-specific exponents (IZeta= 3).
                        Self-potential: point-specific (ISelfS= 7).
                        Self-field    : sphere-specific E.n sum rule (ISelfD= 2).
 1st derivatives      : Analytical E(r).r(x)/FMM algorithm (CHGder, D1EAlg=3).
                        Cavity 1st derivative terms included.
 Solvent              : Water, Eps=  78.355300 Eps(inf)=   1.777849
 ------------------------------------------------------------------------------
 Spheres list:
 ISph  on   Nord     Re0    Alpha      Xe            Ye            Ze
    1  Mg      1    1.5105  1.100     -2.190489      0.122343      0.002213
    2   O      2    1.7500  1.100     -0.000992     -0.288628     -0.010520
    3   C      3    1.9255  1.100      1.162709     -0.100472      0.008419
    4   N      4    1.8300  1.100      2.339047      0.079355      0.005079
    5   H      5    1.4430  1.100      2.944216      0.888255     -0.028466
 ------------------------------------------------------------------------------
 One-electron integrals computed using PRISM.
 PrsmSu:  requested number of processors reduced to:  30 ShMem   1 Linda.
   1 Symmetry operations used in ECPInt.
 ECPInt:  NShTT=     435 NPrTT=    1835 LenC2=     430 LenP2D=    1473.
 LDataN:  DoStor=T MaxTD1= 4 Len=   56
 NBasis=    65 RedAO= T EigKep=  2.81D-03  NBF=    65
 NBsUse=    65 1.00D-06 EigRej= -1.00D+00 NBFU=    65
 Lowest energy guess from the checkpoint file:  "/home/zz1/proj/gauss/new/chk/Mg-ESAGAI-4/166.chk"
 B after Tr=    -0.000000    0.000000   -0.000000
         Rot=    0.999998   -0.000957    0.000077   -0.001620 Ang=  -0.22 deg.
 B after Tr=     0.000000    0.000000    0.000000
         Rot=    0.999999   -0.001575    0.000046    0.000045 Ang=  -0.18 deg.
 Keep R1 ints in memory in canonical form, NReq=46053231.
 Requested convergence on RMS density matrix=1.00D-08 within 128 cycles.
 Requested convergence on MAX density matrix=1.00D-06.
 Requested convergence on             energy=1.00D-06.
 No special actions if energy rises.
 Inv3:  Mode=1 IEnd=     1550883.
 Iteration    1 A*A^-1 deviation from unit magnitude is 2.66D-15 for     73.
 Iteration    1 A*A^-1 deviation from orthogonality  is 1.44D-15 for    436     57.
 Iteration    1 A^-1*A deviation from unit magnitude is 2.44D-15 for     73.
 Iteration    1 A^-1*A deviation from orthogonality  is 1.48D-15 for    670    326.
 CoulSu:  requested number of processors reduced to:  46 ShMem   1 Linda.
 Error on total polarization charges =  0.16549
 SCF Done:  E(RM062X) =  -368.475246043     A.U. after   14 cycles
            NFock= 14  Conv=0.40D-08     -V/T= 2.0062

 **********************************************************************

            Population analysis using the SCF density.

 **********************************************************************

 Orbital symmetries:
       Occupied  (A) (A) (A) (A) (A) (A) (A) (A) (A) (A) (A) (A)
                 (A) (A) (A) (A) (A)
       Virtual   (A) (A) (A) (A) (A) (A) (A) (A) (A) (A) (A) (A)
                 (A) (A) (A) (A) (A) (A) (A) (A) (A) (A) (A) (A)
                 (A) (A) (A) (A) (A) (A) (A) (A) (A) (A) (A) (A)
                 (A) (A) (A) (A) (A) (A) (A) (A) (A) (A) (A) (A)
 The electronic state is 1-A.
 Alpha  occ. eigenvalues --  -47.52506 -19.70250 -14.80023 -10.72325  -3.27383
 Alpha  occ. eigenvalues --   -1.96382  -1.96302  -1.96301  -1.23607  -1.05410
 Alpha  occ. eigenvalues --   -0.70460  -0.63595  -0.56662  -0.56312  -0.40392
 Alpha  occ. eigenvalues --   -0.38940  -0.15524
 Alpha virt. eigenvalues --    0.03218   0.04142   0.05305   0.06229   0.10068
 Alpha virt. eigenvalues --    0.11244   0.13886   0.19870   0.22679   0.22680
 Alpha virt. eigenvalues --    0.23497   0.23622   0.32013   0.34248   0.34364
 Alpha virt. eigenvalues --    0.36923   0.43947   0.52253   0.52790   0.60091
 Alpha virt. eigenvalues --    0.68457   0.76195   0.83930   0.95283   0.96802
 Alpha virt. eigenvalues --    1.11720   1.16799   1.21763   1.38795   1.40893
 Alpha virt. eigenvalues --    1.56041   1.58132   1.65804   1.68839   1.70021
 Alpha virt. eigenvalues --    1.72320   2.22082   2.38850   2.46231   2.64830
 Alpha virt. eigenvalues --    2.68805   2.70230   2.76708   3.03299   3.38350
 Alpha virt. eigenvalues --    3.44338   3.68524   3.90202
          Condensed to atoms (all electrons):
               1          2          3          4          5
     1  Mg  12.119980   0.005470  -0.006692  -0.008520   0.000847
     2  O    0.005470   7.687074   0.582386  -0.018991  -0.000361
     3  C   -0.006692   0.582386   4.499734   0.688712  -0.034004
     4  N   -0.008520  -0.018991   0.688712   6.090109   0.388190
     5  H    0.000847  -0.000361  -0.034004   0.388190   0.409029
 Mulliken charges:
               1
     1  Mg  -0.111085
     2  O   -0.255578
     3  C    0.269863
     4  N   -0.139499
     5  H    0.236300
 Sum of Mulliken charges =  -0.00000
 Mulliken charges with hydrogens summed into heavy atoms:
               1
     1  Mg  -0.111085
     2  O   -0.255578
     3  C    0.269863
     4  N    0.096801
 Electronic spatial extent (au):  <R**2>=            480.1251
 Charge=              0.0000 electrons
 Dipole moment (field-independent basis, Debye):
    X=              6.3674    Y=              1.1954    Z=             -0.0341  Tot=              6.4787
 Quadrupole moment (field-independent basis, Debye-Ang):
   XX=            -36.6487   YY=            -29.0438   ZZ=            -30.6118
   XY=              6.2668   XZ=             -0.1810   YZ=             -0.0731
 Traceless Quadrupole moment (field-independent basis, Debye-Ang):
   XX=             -4.5473   YY=              3.0577   ZZ=              1.4896
   XY=              6.2668   XZ=             -0.1810   YZ=             -0.0731
 Octapole moment (field-independent basis, Debye-Ang**2):
  XXX=            100.7433  YYY=             -2.1039  ZZZ=             -0.1209  XYY=             19.5411
  XXY=             10.0629  XXZ=             -0.7097  XZZ=             14.1062  YZZ=             -1.1860
  YYZ=             -0.0851  XYZ=             -0.1690
 Hexadecapole moment (field-independent basis, Debye-Ang**3):
 XXXX=           -821.0295 YYYY=            -67.0616 ZZZZ=            -61.6825 XXXY=             68.7531
 XXXZ=             -1.8050 YYYX=             16.9389 YYYZ=             -0.0917 ZZZX=             -0.0673
 ZZZY=             -0.0405 XXYY=           -130.5261 XXZZ=           -143.8394 YYZZ=            -21.7110
 XXYZ=             -0.5192 YYXZ=             -0.1652 ZZXY=              4.1265
 N-N= 1.044661428570D+02 E-N=-1.080980894399D+03  KE= 3.662136473863D+02
 PrsmSu:  requested number of processors reduced to:  30 ShMem   1 Linda.
   1 Symmetry operations used in ECPInt.
 ECPInt:  NShTT=     435 NPrTT=    1835 LenC2=     430 LenP2D=    1473.
 LDataN:  DoStor=T MaxTD1= 5 Len=  102
 D1PCM: PCM CHGder 1st derivatives, ID1Alg=3 FixD1E=F DoIter=F DoCFld=F I1PDM=0.
 CoulSu:  requested number of processors reduced to:  30 ShMem   1 Linda.
 CoulSu:  requested number of processors reduced to:  31 ShMem   1 Linda.
 Calling FoFJK, ICntrl=      2127 FMM=F ISym2X=0 I1Cent= 0 IOpClX= 0 NMat=1 NMatS=1 NMatT=0.
 ***** Axes restored to original set *****
 -------------------------------------------------------------------
 Center     Atomic                   Forces (Hartrees/Bohr)
 Number     Number              X              Y              Z
 -------------------------------------------------------------------
      1       12           0.004103574   -0.008639660    0.007005473
      2        8          -0.012544877    0.010495505   -0.007355886
      3        6           0.014491218   -0.001169422   -0.001156545
      4        7          -0.005459888   -0.001984781    0.002999639
      5        1          -0.000590029    0.001298357   -0.001492681
 -------------------------------------------------------------------
 Cartesian Forces:  Max     0.014491218 RMS     0.006937379

 GradGradGradGradGradGradGradGradGradGradGradGradGradGradGradGradGradGrad
 Berny optimization.
 Using GEDIIS/GDIIS optimizer.
 FormGI is forming the generalized inverse of G from B-inverse, IUseBI=4.
 Internal  Forces:  Max     0.011873837 RMS     0.004364937
 Search for a local minimum.
 Step number   4 out of a maximum of   10
 All quantities printed in internal units (Hartrees-Bohrs-Radians)
 Mixed Optimization -- RFO/linear search
 Update second derivatives using D2CorX and points    3    2    4
 DE= -2.54D-02 DEPred=-3.51D-02 R= 7.22D-01
 TightC=F SS=  1.41D+00  RLast= 4.90D-01 DXNew= 4.2426D-01 1.4705D+00
 Trust test= 7.22D-01 RLast= 4.90D-01 DXMaxT set to 4.24D-01
 The second derivative matrix:
                          R1        R2        R3        R4        A1
           R1           0.10754
           R2           0.00209   1.18566
           R3          -0.08531   0.13508   1.99366
           R4           0.04032  -0.02095   0.08598   0.40532
           A1           0.00185  -0.00042   0.00620  -0.00265   0.24989
           A2          -0.02845   0.02540   0.04019   0.02361   0.00215
           A3          -0.01419   0.00371  -0.02250   0.02270   0.00096
           D1          -0.00000  -0.00002  -0.00010   0.00003   0.00000
           D2          -0.00430   0.00183  -0.00005   0.00277   0.00029
                          A2        A3        D1        D2
           A2           0.25770
           A3          -0.00834   0.15411
           D1          -0.00002  -0.00000   0.04583
           D2          -0.00117  -0.00167  -0.00000   0.05681
 ITU=  1 -1  1  0
 Use linear search instead of GDIIS.
     Eigenvalues ---    0.04583   0.05590   0.08665   0.15766   0.24960
     Eigenvalues ---    0.26016   0.41027   1.16576   2.02469
 RFO step:  Lambda=-1.22891961D-03 EMin= 4.58307801D-02
 Quartic linear search produced a step of  0.06116.
 Iteration  1 RMS(Cart)=  0.03851964 RMS(Int)=  0.00069682
 Iteration  2 RMS(Cart)=  0.00020707 RMS(Int)=  0.00000007
 Iteration  3 RMS(Cart)=  0.00000007 RMS(Int)=  0.00000000
 Variable       Old X    -DE/DX   Delta X   Delta X   Delta X     New X
                                 (Linear)    (Quad)   (Total)
    R1        4.20987   0.01187   0.01856   0.09714   0.11570   4.32557
    R2        2.22792  -0.00171  -0.00137  -0.00112  -0.00249   2.22543
    R3        2.24879  -0.00141   0.00486   0.00031   0.00517   2.25397
    R4        1.91010   0.00103  -0.01647   0.00587  -0.01061   1.89949
    A1        2.79508  -0.00118  -0.00056  -0.00531  -0.00587   2.78921
    A2        3.12085  -0.00333   0.01212  -0.01241  -0.00029   3.12056
    A3        2.36437   0.00345   0.00847   0.02480   0.03327   2.39764
    D1       -2.06001   0.00001   0.00001   0.00015   0.00016  -2.05986
    D2        1.95411   0.00036   0.00622   0.00618   0.01240   1.96651
         Item               Value     Threshold  Converged?
 Maximum Force            0.011874     0.000450     NO 
 RMS     Force            0.004365     0.000300     NO 
 Maximum Displacement     0.068122     0.001800     NO 
 RMS     Displacement     0.038491     0.001200     NO 
 Predicted change in Energy=-8.030965D-04
 GradGradGradGradGradGradGradGradGradGradGradGradGradGradGradGradGradGrad

                          Input orientation:                          
 ---------------------------------------------------------------------
 Center     Atomic      Atomic             Coordinates (Angstroms)
 Number     Number       Type             X           Y           Z
 ---------------------------------------------------------------------
      1         12           0       11.022633   -4.386516   27.200628
      2          8           0       10.265441   -2.718455   25.828140
      3          6           0       10.248773   -1.925751   24.957396
      4          7           0       10.229728   -1.104602   24.092528
      5          1           0       10.866184   -0.738676   23.405957
 ---------------------------------------------------------------------
                    Distance matrix (angstroms):
                    1          2          3          4          5
     1  Mg   0.000000
     2  O    2.288993   0.000000
     3  C    3.418525   1.177647   0.000000
     4  N    4.589111   2.370263   1.192747   0.000000
     5  H    5.265998   3.185497   2.048733   1.005166   0.000000
 Stoichiometry    CHMgNO
 Framework group  C1[X(CHMgNO)]
 Deg. of freedom     9
 Full point group                 C1      NOp   1
 Largest Abelian subgroup         C1      NOp   1
 Largest concise Abelian subgroup C1      NOp   1
                         Standard orientation:                         
 ---------------------------------------------------------------------
 Center     Atomic      Atomic             Coordinates (Angstroms)
 Number     Number       Type             X           Y           Z
 ---------------------------------------------------------------------
      1         12           0       -2.229489    0.123514    0.001781
      2          8           0        0.020623   -0.296442   -0.009297
      3          6           0        1.181691   -0.100345    0.008533
      4          7           0        2.359483    0.087882    0.003829
      5          1           0        2.982361    0.876267   -0.024999
 ---------------------------------------------------------------------
 Rotational constants (GHZ):         184.7920620           2.2681784           2.2407343
 Standard basis: def2SVP (5D, 7F)
 There are    69 symmetry adapted cartesian basis functions of A   symmetry.
 There are    65 symmetry adapted basis functions of A   symmetry.
    65 basis functions,   119 primitive gaussians,    69 cartesian basis functions
    17 alpha electrons       17 beta electrons
       nuclear repulsion energy       103.5000362173 Hartrees.
 NAtoms=    5 NActive=    5 NUniq=    5 SFac= 1.00D+00 NAtFMM=   60 NAOKFM=F Big=F
 Integral buffers will be    131072 words long.
 Raffenetti 2 integral format.
 Two-electron integral symmetry is turned on.
 ------------------------------------------------------------------------------
 Polarizable Continuum Model (PCM)
 =================================
 Model                : PCM.
 Atomic radii         : UFF (Universal Force Field).
 Polarization charges : Total charges.
 Charge compensation  : None.
 Solution method      : On-the-fly selection.
 Cavity type          : Scaled VdW (van der Waals Surface) (Alpha=1.100).
 Cavity algorithm     : GePol (No added spheres)
                        Default sphere list used, NSphG=    5.
                        Lebedev-Laikov grids with approx.  5.0 points / Ang**2.
                        Smoothing algorithm: York/Karplus (Gamma=1.0000).
                        Polarization charges: spherical gaussians, with
                                              point-specific exponents (IZeta= 3).
                        Self-potential: point-specific (ISelfS= 7).
                        Self-field    : sphere-specific E.n sum rule (ISelfD= 2).
 1st derivatives      : Analytical E(r).r(x)/FMM algorithm (CHGder, D1EAlg=3).
                        Cavity 1st derivative terms included.
 Solvent              : Water, Eps=  78.355300 Eps(inf)=   1.777849
 ------------------------------------------------------------------------------
 Spheres list:
 ISph  on   Nord     Re0    Alpha      Xe            Ye            Ze
    1  Mg      1    1.5105  1.100     -2.229489      0.123514      0.001781
    2   O      2    1.7500  1.100      0.020623     -0.296442     -0.009297
    3   C      3    1.9255  1.100      1.181691     -0.100345      0.008533
    4   N      4    1.8300  1.100      2.359483      0.087882      0.003829
    5   H      5    1.4430  1.100      2.982361      0.876267     -0.024999
 ------------------------------------------------------------------------------
 One-electron integrals computed using PRISM.
 PrsmSu:  requested number of processors reduced to:  30 ShMem   1 Linda.
   1 Symmetry operations used in ECPInt.
 ECPInt:  NShTT=     435 NPrTT=    1835 LenC2=     428 LenP2D=    1467.
 LDataN:  DoStor=T MaxTD1= 4 Len=   56
 NBasis=    65 RedAO= T EigKep=  2.83D-03  NBF=    65
 NBsUse=    65 1.00D-06 EigRej= -1.00D+00 NBFU=    65
 Initial guess from the checkpoint file:  "/home/zz1/proj/gauss/new/chk/Mg-ESAGAI-4/166.chk"
 B after Tr=     0.000000    0.000000    0.000000
         Rot=    1.000000    0.000707    0.000018   -0.000637 Ang=   0.11 deg.
 ExpMin= 3.36D-02 ExpMax= 4.95D+03 ExpMxC= 7.45D+02 IAcc=3 IRadAn=         5 AccDes= 0.00D+00
 Harris functional with IExCor= 1009 and IRadAn=       5 diagonalized for initial guess.
 HarFok:  IExCor= 1009 AccDes= 0.00D+00 IRadAn=         5 IDoV= 1 UseB2=F ITyADJ=14
 ICtDFT=  3500011 ScaDFX=  1.000000  1.000000  1.000000  1.000000
 FoFCou: FMM=F IPFlag=           0 FMFlag=      100000 FMFlg1=           0
         NFxFlg=           0 DoJE=T BraDBF=F KetDBF=T FulRan=T
         wScrn=  0.000000 ICntrl=       500 IOpCl=  0 I1Cent=   200000004 NGrid=           0
         NMat0=    1 NMatS0=      1 NMatT0=    0 NMatD0=    1 NMtDS0=    0 NMtDT0=    0
 Petite list used in FoFCou.
 Keep R1 ints in memory in canonical form, NReq=46053231.
 Requested convergence on RMS density matrix=1.00D-08 within 128 cycles.
 Requested convergence on MAX density matrix=1.00D-06.
 Requested convergence on             energy=1.00D-06.
 No special actions if energy rises.
 Inv3:  Mode=1 IEnd=     1555200.
 Iteration    1 A*A^-1 deviation from unit magnitude is 2.78D-15 for    238.
 Iteration    1 A*A^-1 deviation from orthogonality  is 2.14D-15 for    352     93.
 Iteration    1 A^-1*A deviation from unit magnitude is 2.55D-15 for    230.
 Iteration    1 A^-1*A deviation from orthogonality  is 2.44D-15 for    581    311.
 CoulSu:  requested number of processors reduced to:  46 ShMem   1 Linda.
 Error on total polarization charges =  0.16277
 SCF Done:  E(RM062X) =  -368.476558351     A.U. after   11 cycles
            NFock= 11  Conv=0.57D-08     -V/T= 2.0062

 **********************************************************************

            Population analysis using the SCF density.

 **********************************************************************

 Orbital symmetries:
       Occupied  (A) (A) (A) (A) (A) (A) (A) (A) (A) (A) (A) (A)
                 (A) (A) (A) (A) (A)
       Virtual   (A) (A) (A) (A) (A) (A) (A) (A) (A) (A) (A) (A)
                 (A) (A) (A) (A) (A) (A) (A) (A) (A) (A) (A) (A)
                 (A) (A) (A) (A) (A) (A) (A) (A) (A) (A) (A) (A)
                 (A) (A) (A) (A) (A) (A) (A) (A) (A) (A) (A) (A)
 The electronic state is 1-A.
 Alpha  occ. eigenvalues --  -47.52502 -19.69968 -14.79813 -10.72104  -3.27354
 Alpha  occ. eigenvalues --   -1.96339  -1.96270  -1.96268  -1.23359  -1.05045
 Alpha  occ. eigenvalues --   -0.70549  -0.63054  -0.56393  -0.56079  -0.40010
 Alpha  occ. eigenvalues --   -0.38654  -0.15646
 Alpha virt. eigenvalues --    0.03435   0.04134   0.05379   0.06361   0.10204
 Alpha virt. eigenvalues --    0.11082   0.13904   0.19864   0.22715   0.22717
 Alpha virt. eigenvalues --    0.23408   0.23541   0.32137   0.34254   0.34365
 Alpha virt. eigenvalues --    0.36034   0.43446   0.52198   0.52662   0.59791
 Alpha virt. eigenvalues --    0.69266   0.76504   0.83941   0.95166   0.97251
 Alpha virt. eigenvalues --    1.11485   1.16501   1.21714   1.37454   1.41125
 Alpha virt. eigenvalues --    1.56491   1.58276   1.65660   1.68580   1.71050
 Alpha virt. eigenvalues --    1.73079   2.23400   2.38047   2.44883   2.65534
 Alpha virt. eigenvalues --    2.69096   2.70625   2.76787   3.03132   3.38918
 Alpha virt. eigenvalues --    3.44918   3.69874   3.91024
          Condensed to atoms (all electrons):
               1          2          3          4          5
     1  Mg  12.114523   0.005281  -0.007412  -0.007664   0.000732
     2  O    0.005281   7.672831   0.587930  -0.019752  -0.000284
     3  C   -0.007412   0.587930   4.503692   0.686156  -0.035917
     4  N   -0.007664  -0.019752   0.686156   6.094809   0.391752
     5  H    0.000732  -0.000284  -0.035917   0.391752   0.412500
 Mulliken charges:
               1
     1  Mg  -0.105460
     2  O   -0.246006
     3  C    0.265551
     4  N   -0.145302
     5  H    0.231217
 Sum of Mulliken charges =  -0.00000
 Mulliken charges with hydrogens summed into heavy atoms:
               1
     1  Mg  -0.105460
     2  O   -0.246006
     3  C    0.265551
     4  N    0.085915
 Electronic spatial extent (au):  <R**2>=            490.9196
 Charge=              0.0000 electrons
 Dipole moment (field-independent basis, Debye):
    X=              6.0595    Y=              1.2215    Z=             -0.0241  Tot=              6.1815
 Quadrupole moment (field-independent basis, Debye-Ang):
   XX=            -35.5755   YY=            -29.0259   ZZ=            -30.5372
   XY=              6.0800   XZ=             -0.1562   YZ=             -0.0630
 Traceless Quadrupole moment (field-independent basis, Debye-Ang):
   XX=             -3.8626   YY=              2.6869   ZZ=              1.1757
   XY=              6.0800   XZ=             -0.1562   YZ=             -0.0630
 Octapole moment (field-independent basis, Debye-Ang**2):
  XXX=             98.8620  YYY=             -1.9972  ZZZ=             -0.0985  XYY=             19.1663
  XXY=             10.4247  XXZ=             -0.6151  XZZ=             13.8522  YZZ=             -1.1325
  YYZ=             -0.0709  XYZ=             -0.1505
 Hexadecapole moment (field-independent basis, Debye-Ang**3):
 XXXX=           -823.2380 YYYY=            -66.5991 ZZZZ=            -61.0486 XXXY=             68.5799
 XXXZ=             -1.6600 YYYX=             16.3287 YYYZ=             -0.0756 ZZZX=             -0.0758
 ZZZY=             -0.0329 XXYY=           -132.4403 XXZZ=           -145.7329 YYZZ=            -21.5128
 XXYZ=             -0.4590 YYXZ=             -0.1483 ZZXY=              3.9703
 N-N= 1.035000362173D+02 E-N=-1.079125301894D+03  KE= 3.662009271254D+02
 PrsmSu:  requested number of processors reduced to:  30 ShMem   1 Linda.
   1 Symmetry operations used in ECPInt.
 ECPInt:  NShTT=     435 NPrTT=    1835 LenC2=     428 LenP2D=    1467.
 LDataN:  DoStor=T MaxTD1= 5 Len=  102
 D1PCM: PCM CHGder 1st derivatives, ID1Alg=3 FixD1E=F DoIter=F DoCFld=F I1PDM=0.
 CoulSu:  requested number of processors reduced to:  30 ShMem   1 Linda.
[...]
 Spheres list:
 ISph  on   Nord     Re0    Alpha      Xe            Ye            Ze
    1  Mg      1    1.5105  1.100     -3.428939      0.153841     -0.000753
    2   O      2    1.7500  1.100      0.767379     -0.599818      0.001138
    3   C      3    1.9255  1.100      1.831327     -0.103123      0.015909
    4   N      4    1.8300  1.100      2.905445      0.368614     -0.025562
    5   H      5    1.4430  1.100      3.682159      0.990892      0.083411
 ------------------------------------------------------------------------------
 Separa: There are  2 disjoint cavities,
 One-electron integrals computed using PRISM.
 PrsmSu:  requested number of processors reduced to:  30 ShMem   1 Linda.
   1 Symmetry operations used in ECPInt.
 ECPInt:  NShTT=     435 NPrTT=    1835 LenC2=     416 LenP2D=    1363.
 LDataN:  DoStor=T MaxTD1= 4 Len=   56
 NBasis=    65 RedAO= T EigKep=  3.12D-03  NBF=    65
 NBsUse=    65 1.00D-06 EigRej= -1.00D+00 NBFU=    65
 Initial guess from the checkpoint file:  "/home/zz1/proj/gauss/new/chk/Mg-ESAGAI-4/166.chk"
 B after Tr=    -0.000000    0.000000   -0.000000
         Rot=    0.999968   -0.003057   -0.000068   -0.007379 Ang=  -0.92 deg.
 ExpMin= 3.36D-02 ExpMax= 4.95D+03 ExpMxC= 7.45D+02 IAcc=3 IRadAn=         5 AccDes= 0.00D+00
 Harris functional with IExCor= 1009 and IRadAn=       5 diagonalized for initial guess.
 HarFok:  IExCor= 1009 AccDes= 0.00D+00 IRadAn=         5 IDoV= 1 UseB2=F ITyADJ=14
 ICtDFT=  3500011 ScaDFX=  1.000000  1.000000  1.000000  1.000000
 FoFCou: FMM=F IPFlag=           0 FMFlag=      100000 FMFlg1=           0
         NFxFlg=           0 DoJE=T BraDBF=F KetDBF=T FulRan=T
         wScrn=  0.000000 ICntrl=       500 IOpCl=  0 I1Cent=   200000004 NGrid=           0
         NMat0=    1 NMatS0=      1 NMatT0=    0 NMatD0=    1 NMtDS0=    0 NMtDT0=    0
 Petite list used in FoFCou.
 Keep R1 ints in memory in canonical form, NReq=46053231.
 Requested convergence on RMS density matrix=1.00D-08 within 128 cycles.
 Requested convergence on MAX density matrix=1.00D-06.
 Requested convergence on             energy=1.00D-06.
 No special actions if energy rises.
 Inv3:  Mode=1 IEnd=     1867563.
 Iteration    1 A*A^-1 deviation from unit magnitude is 3.11D-15 for     53.
 Iteration    1 A*A^-1 deviation from orthogonality  is 1.42D-15 for    716    584.
 Iteration    1 A^-1*A deviation from unit magnitude is 2.89D-15 for     53.
 Iteration    1 A^-1*A deviation from orthogonality  is 1.67D-15 for    730    475.
 CoulSu:  requested number of processors reduced to:  46 ShMem   1 Linda.
 Error on total polarization charges =  0.14745
 SCF Done:  E(RM062X) =  -368.486050641     A.U. after   12 cycles
            NFock= 12  Conv=0.59D-08     -V/T= 2.0063

 **********************************************************************

            Population analysis using the SCF density.

 **********************************************************************

 Orbital symmetries:
       Occupied  (A) (A) (A) (A) (A) (A) (A) (A) (A) (A) (A) (A)
                 (A) (A) (A) (A) (A)
       Virtual   (A) (A) (A) (A) (A) (A) (A) (A) (A) (A) (A) (A)
                 (A) (A) (A) (A) (A) (A) (A) (A) (A) (A) (A) (A)
                 (A) (A) (A) (A) (A) (A) (A) (A) (A) (A) (A) (A)
                 (A) (A) (A) (A) (A) (A) (A) (A) (A) (A) (A) (A)
 The electronic state is 1-A.
 Alpha  occ. eigenvalues --  -47.52534 -19.66582 -14.78517 -10.69565  -3.27289
 Alpha  occ. eigenvalues --   -1.96209  -1.96209  -1.96204  -1.20299  -1.03681
 Alpha  occ. eigenvalues --   -0.71316  -0.58090  -0.54311  -0.54235  -0.37095
 Alpha  occ. eigenvalues --   -0.36865  -0.16863
 Alpha virt. eigenvalues --    0.04226   0.04442   0.04446   0.09987   0.11266
 Alpha virt. eigenvalues --    0.12586   0.13153   0.19161   0.23044   0.23074
 Alpha virt. eigenvalues --    0.23360   0.23376   0.23406   0.34183   0.34694
 Alpha virt. eigenvalues --    0.34713   0.37875   0.50669   0.51142   0.52536
 Alpha virt. eigenvalues --    0.68451   0.82010   0.83389   0.90250   1.02180
 Alpha virt. eigenvalues --    1.07679   1.11907   1.21218   1.26076   1.43145
 Alpha virt. eigenvalues --    1.52774   1.59377   1.59440   1.64559   1.81728
 Alpha virt. eigenvalues --    1.81978   2.27233   2.27744   2.32685   2.71379
 Alpha virt. eigenvalues --    2.71961   2.74656   2.76409   3.00403   3.50614
 Alpha virt. eigenvalues --    3.53398   3.74085   4.07415
          Condensed to atoms (all electrons):
               1          2          3          4          5
     1  Mg  12.003470   0.006017   0.000278  -0.000052   0.000002
     2  O    0.006017   7.585441   0.693680  -0.031406   0.000335
     3  C    0.000278   0.693680   4.516947   0.636823  -0.055037
     4  N   -0.000052  -0.031406   0.636823   6.145883   0.407945
     5  H    0.000002   0.000335  -0.055037   0.407945   0.431089
 Mulliken charges:
               1
     1  Mg  -0.009715
     2  O   -0.254066
     3  C    0.207310
     4  N   -0.159193
     5  H    0.215665
 Sum of Mulliken charges =  -0.00000
 Mulliken charges with hydrogens summed into heavy atoms:
               1
     1  Mg  -0.009715
     2  O   -0.254066
     3  C    0.207310
     4  N    0.056472
 Electronic spatial extent (au):  <R**2>=            924.4375
 Charge=             -0.0000 electrons
 Dipole moment (field-independent basis, Debye):
    X=              2.6516    Y=              2.0327    Z=              0.2945  Tot=              3.3541
 Quadrupole moment (field-independent basis, Debye-Ang):
   XX=            -14.5398   YY=            -28.5502   ZZ=            -29.5448
   XY=              4.7358   XZ=              0.9822   YZ=              0.2176
 Traceless Quadrupole moment (field-independent basis, Debye-Ang):
   XX=              9.6718   YY=             -4.3386   ZZ=             -5.3332
   XY=              4.7358   XZ=              0.9822   YZ=              0.2176
 Octapole moment (field-independent basis, Debye-Ang**2):
  XXX=             80.3182  YYY=             -0.0858  ZZZ=              0.2170  XYY=             20.5006
  XXY=             19.6509  XXZ=              3.3528  XZZ=             14.2872  YZZ=             -0.8467
  YYZ=              0.2451  XYZ=              0.7427
 Hexadecapole moment (field-independent basis, Debye-Ang**3):
 XXXX=          -1147.0044 YYYY=            -74.0384 ZZZZ=            -54.9782 XXXY=             84.1459
 XXXZ=             12.0189 YYYX=             14.5167 YYYZ=              0.3361 ZZZX=              0.6747
 ZZZY=              0.1431 XXYY=           -223.1597 XXZZ=           -246.0921 YYZZ=            -21.8092
 XXYZ=              2.6987 YYXZ=              0.8973 ZZXY=              2.1767
 N-N= 8.668928257201D+01 E-N=-1.046360394188D+03  KE= 3.661722084428D+02
 PrsmSu:  requested number of processors reduced to:  30 ShMem   1 Linda.
   1 Symmetry operations used in ECPInt.
 ECPInt:  NShTT=     435 NPrTT=    1835 LenC2=     416 LenP2D=    1363.
 LDataN:  DoStor=T MaxTD1= 5 Len=  102
 D1PCM: PCM CHGder 1st derivatives, ID1Alg=3 FixD1E=F DoIter=F DoCFld=F I1PDM=0.
 CoulSu:  requested number of processors reduced to:  30 ShMem   1 Linda.
 CoulSu:  requested number of processors reduced to:  30 ShMem   1 Linda.
 Calling FoFJK, ICntrl=      2127 FMM=F ISym2X=0 I1Cent= 0 IOpClX= 0 NMat=1 NMatS=1 NMatT=0.
 ***** Axes restored to original set *****
 -------------------------------------------------------------------
 Center     Atomic                   Forces (Hartrees/Bohr)
 Number     Number              X              Y              Z
 -------------------------------------------------------------------
      1       12          -0.000258913    0.000577466   -0.000494717
      2        8          -0.002598697   -0.002370121    0.000811515
      3        6           0.002552362   -0.007873094    0.010572297
      4        7          -0.000290327    0.010436389   -0.009813583
      5        1           0.000595575   -0.000770639   -0.001075513
 -------------------------------------------------------------------
 Cartesian Forces:  Max     0.010572297 RMS     0.005172764

 GradGradGradGradGradGradGradGradGradGradGradGradGradGradGradGradGradGrad
 Berny optimization.
 Using GEDIIS/GDIIS optimizer.
 FormGI is forming the generalized inverse of G from B-inverse, IUseBI=4.
 Internal  Forces:  Max     0.014302043 RMS     0.004915390
 Search for a local minimum.
 Step number  10 out of a maximum of   10
 All quantities printed in internal units (Hartrees-Bohrs-Radians)
 Mixed Optimization -- RFO/linear search
 Update second derivatives using D2CorX and points   10    9
 DE=  3.81D-04 DEPred=-8.03D-04 R=-4.75D-01
 Trust test=-4.75D-01 RLast= 1.44D+00 DXMaxT set to 1.01D+00
 The second derivative matrix:
                          R1        R2        R3        R4        A1
           R1           0.00525
           R2          -0.00228   1.18467
           R3           0.01776   0.10492   2.41985
           R4           0.00013  -0.00025   0.02748   0.49169
           A1           0.01715  -0.00296   0.01547  -0.00935   0.24921
           A2           0.00043   0.02097   0.07745   0.02428  -0.00128
           A3          -0.01145   0.01672  -0.02369   0.00833   0.00261
           D1          -0.00034  -0.00003  -0.00036   0.00020   0.00001
           D2          -0.00895   0.00023   0.00833  -0.00127   0.00083
                          A2        A3        D1        D2
           A2           0.25536
           A3           0.00284   0.13471
           D1          -0.00003   0.00003   0.04583
           D2          -0.00154   0.00069  -0.00003   0.05607
 ITU= -1  1  1  1  1  1  1 -1  1  0
 Use linear search instead of GDIIS.
     Eigenvalues ---    0.00147   0.04583   0.05746   0.13486   0.24922
     Eigenvalues ---    0.25080   0.49413   1.17642   2.43244
 RFO step:  Lambda=-7.03476472D-05 EMin= 1.47022354D-03
 Quartic linear search produced a step of -0.67769.
 Iteration  1 RMS(Cart)=  0.06681820 RMS(Int)=  0.25032385
 Iteration  2 RMS(Cart)=  0.06041970 RMS(Int)=  0.18336669
 Iteration  3 RMS(Cart)=  0.05889282 RMS(Int)=  0.11670858
 Iteration  4 RMS(Cart)=  0.05888366 RMS(Int)=  0.05005098
 Iteration  5 RMS(Cart)=  0.04418530 RMS(Int)=  0.00001560
 Iteration  6 RMS(Cart)=  0.00004355 RMS(Int)=  0.00000000
 Iteration  7 RMS(Cart)=  0.00000000 RMS(Int)=  0.00000000
 Variable       Old X    -DE/DX   Delta X   Delta X   Delta X     New X
                                 (Linear)    (Quad)   (Total)
    R1        8.05677  -0.00080  -0.95968   0.01058  -0.94910   7.10767
    R2        2.21905   0.00197  -0.00084   0.00108   0.00024   2.21929
    R3        2.21830   0.01430   0.00899   0.00283   0.01182   2.23013
    R4        1.89198   0.00075   0.00180   0.00154   0.00334   1.89533
    A1        2.52701  -0.00024   0.06612  -0.00072   0.06541   2.59242
    A2        3.08847   0.00179   0.00382   0.00135   0.00517   3.09364
    A3        2.84312  -0.00211  -0.07866  -0.01668  -0.09534   2.74778
    D1       -2.03438   0.00000  -0.00723   0.00035  -0.00688  -2.04126
    D2        2.52425   0.00031  -0.15652   0.00784  -0.14868   2.37557
         Item               Value     Threshold  Converged?
 Maximum Force            0.014302     0.000450     NO 
 RMS     Force            0.004915     0.000300     NO 
 Maximum Displacement     0.501666     0.001800     NO 
 RMS     Displacement     0.268625     0.001200     NO 
 Predicted change in Energy=-4.792613D-05
 Optimization stopped.
    -- Number of steps exceeded,  NStep=  10
    -- Flag reset to prevent archiving.
                           ----------------------------
                           ! Non-Optimized Parameters !
                           ! (Angstroms and Degrees)  !
 --------------------------                            --------------------------
 ! Name  Definition              Value          Derivative Info.                !
 --------------------------------------------------------------------------------
 ! R1    R(1,2)                  3.7612         -DE/DX =   -0.0008              !
 ! R2    R(2,3)                  1.1744         -DE/DX =    0.002               !
 ! R3    R(3,4)                  1.1801         -DE/DX =    0.0143              !
 ! R4    R(4,5)                  1.003          -DE/DX =    0.0007              !
 ! A1    A(1,2,3)              148.5349         -DE/DX =   -0.0002              !
 ! A2    A(2,3,4)              177.2524         -DE/DX =    0.0018              !
 ! A3    A(3,4,5)              157.436          -DE/DX =   -0.0021              !
 ! D1    D(1,2,3,4)           -116.9553         -DE/DX =    0.0                 !
 ! D2    D(2,3,4,5)            136.1103         -DE/DX =    0.0003              !
 --------------------------------------------------------------------------------
 GradGradGradGradGradGradGradGradGradGradGradGradGradGradGradGradGradGrad

                          Input orientation:                          
 ---------------------------------------------------------------------
 Center     Atomic      Atomic             Coordinates (Angstroms)
 Number     Number       Type             X           Y           Z
 ---------------------------------------------------------------------
      1         12           0       11.422406   -5.452829   28.168163
      2          8           0        9.887537   -2.403471   25.614207
      3          6           0       10.142793   -1.674234   24.729919
      4          7           0       10.387726   -0.897419   23.884608
      5          1           0       10.792298   -0.446047   23.087754
 ---------------------------------------------------------------------
                    Distance matrix (angstroms):
                    1          2          3          4          5
     1  Mg   0.000000
     2  O    4.263460   0.000000
     3  C    5.266565   1.174269   0.000000
     4  N    6.338073   2.347317   1.173876   0.000000
     5  H    7.160689   3.321606   2.151047   1.001195   0.000000
 Stoichiometry    CHMgNO
 Framework group  C1[X(CHMgNO)]
 Deg. of freedom     9
 Full point group                 C1      NOp   1
 Largest Abelian subgroup         C1      NOp   1
 Largest concise Abelian subgroup C1      NOp   1
                         Standard orientation:                         
 ---------------------------------------------------------------------
 Center     Atomic      Atomic             Coordinates (Angstroms)
 Number     Number       Type             X           Y           Z
 ---------------------------------------------------------------------
      1         12           0       -3.428939    0.153841   -0.000753
      2          8           0        0.767379   -0.599818    0.001138
      3          6           0        1.831327   -0.103123    0.015909
      4          7           0        2.905445    0.368614   -0.025562
      5          1           0        3.682159    0.990892    0.083411
 ---------------------------------------------------------------------
 Rotational constants (GHZ):          54.2413436           1.0905920           1.0691785

 **********************************************************************

            Population analysis using the SCF density.

 **********************************************************************

 Orbital symmetries:
       Occupied  (A) (A) (A) (A) (A) (A) (A) (A) (A) (A) (A) (A)
                 (A) (A) (A) (A) (A)
       Virtual   (A) (A) (A) (A) (A) (A) (A) (A) (A) (A) (A) (A)
                 (A) (A) (A) (A) (A) (A) (A) (A) (A) (A) (A) (A)
                 (A) (A) (A) (A) (A) (A) (A) (A) (A) (A) (A) (A)
                 (A) (A) (A) (A) (A) (A) (A) (A) (A) (A) (A) (A)
 The electronic state is 1-A.
 Alpha  occ. eigenvalues --  -47.52534 -19.66582 -14.78517 -10.69565  -3.27289
 Alpha  occ. eigenvalues --   -1.96209  -1.96209  -1.96204  -1.20299  -1.03681
 Alpha  occ. eigenvalues --   -0.71316  -0.58090  -0.54311  -0.54235  -0.37095
 Alpha  occ. eigenvalues --   -0.36865  -0.16863
 Alpha virt. eigenvalues --    0.04226   0.04442   0.04446   0.09987   0.11266
 Alpha virt. eigenvalues --    0.12586   0.13153   0.19161   0.23044   0.23074
 Alpha virt. eigenvalues --    0.23360   0.23376   0.23406   0.34183   0.34694
 Alpha virt. eigenvalues --    0.34713   0.37875   0.50669   0.51142   0.52536
 Alpha virt. eigenvalues --    0.68451   0.82010   0.83389   0.90250   1.02180
 Alpha virt. eigenvalues --    1.07679   1.11907   1.21218   1.26076   1.43145
 Alpha virt. eigenvalues --    1.52774   1.59377   1.59440   1.64559   1.81728
 Alpha virt. eigenvalues --    1.81978   2.27233   2.27744   2.32685   2.71379
 Alpha virt. eigenvalues --    2.71961   2.74656   2.76409   3.00403   3.50614
 Alpha virt. eigenvalues --    3.53398   3.74085   4.07415
          Condensed to atoms (all electrons):
               1          2          3          4          5
     1  Mg  12.003470   0.006017   0.000278  -0.000052   0.000002
     2  O    0.006017   7.585441   0.693680  -0.031406   0.000335
     3  C    0.000278   0.693680   4.516947   0.636823  -0.055037
     4  N   -0.000052  -0.031406   0.636823   6.145883   0.407945
     5  H    0.000002   0.000335  -0.055037   0.407945   0.431089
 Mulliken charges:
               1
     1  Mg  -0.009715
     2  O   -0.254066
     3  C    0.207310
     4  N   -0.159193
     5  H    0.215665
 Sum of Mulliken charges =  -0.00000
 Mulliken charges with hydrogens summed into heavy atoms:
               1
     1  Mg  -0.009715
     2  O   -0.254066
     3  C    0.207310
     4  N    0.056472
 Electronic spatial extent (au):  <R**2>=            924.4375
 Charge=             -0.0000 electrons
 Dipole moment (field-independent basis, Debye):
    X=              2.6516    Y=              2.0327    Z=              0.2945  Tot=              3.3541
 Quadrupole moment (field-independent basis, Debye-Ang):
   XX=            -14.5398   YY=            -28.5502   ZZ=            -29.5448
   XY=              4.7358   XZ=              0.9822   YZ=              0.2176
 Traceless Quadrupole moment (field-independent basis, Debye-Ang):
   XX=              9.6718   YY=             -4.3386   ZZ=             -5.3332
   XY=              4.7358   XZ=              0.9822   YZ=              0.2176
 Octapole moment (field-independent basis, Debye-Ang**2):
  XXX=             80.3182  YYY=             -0.0858  ZZZ=              0.2170  XYY=             20.5006
  XXY=             19.6509  XXZ=              3.3528  XZZ=             14.2872  YZZ=             -0.8467
  YYZ=              0.2451  XYZ=              0.7427
 Hexadecapole moment (field-independent basis, Debye-Ang**3):
 XXXX=          -1147.0044 YYYY=            -74.0384 ZZZZ=            -54.9782 XXXY=             84.1459
 XXXZ=             12.0189 YYYX=             14.5167 YYYZ=              0.3361 ZZZX=              0.6747
 ZZZY=              0.1431 XXYY=           -223.1597 XXZZ=           -246.0921 YYZZ=            -21.8092
 XXYZ=              2.6987 YYXZ=              0.8973 ZZXY=              2.1767
 N-N= 8.668928257201D+01 E-N=-1.046360394188D+03  KE= 3.661722084428D+02


 TO DETECT ERRORS, THE PROGRAMMER MUST HAVE A CONNIVING MIND,
 ONE THAT DELIGHTS IN UNCOVERING FLAWS WHERE BEAUTY AND
 PERFECTION WERE ONCE THOUGHT TO LIE.

             -- THE PSYCHOLOGY OF COMPUTER PROGRAMMING
                GERALD M. WEINBERG
 Error termination request processed by link 9999.
 Error termination via Lnk1e in /home/pub/g16/l9999.exe at Sun Jun 25 03:15:26 2023.
 Job cpu time:       0 days  0 hours 22 minutes  8.2 seconds.
 Elapsed time:       0 days  0 hours  0 minutes 28.8 seconds.
 File lengths (MBytes):  RWF=     26 Int=      0 D2E=      0 Chk=      3 Scr=      1
