 Entering Gaussian System, Link 0=g16
 Initial command:
 /home/pub/g16/l1.exe "/home/zz1/gauss/SCRDIR/Gau-1939725.inp" -scrdir="/home/zz1/gauss/SCRDIR/"
 Entering Link 1 = /home/pub/g16/l1.exe PID=   1939727.
  
 Copyright (c) 1988,1990,1992,1993,1995,1998,2003,2009,2016,
            Gaussian, Inc.  All Rights Reserved.
  
 This is part of the Gaussian(R) 16 program.  It is based on
 the Gaussian(R) 09 system (copyright 2009, Gaussian, Inc.),
 the Gaussian(R) 03 system (copyright 2003, Gaussian, Inc.),
 the Gaussian(R) 98 system (copyright 1998, Gaussian, Inc.),
 the Gaussian(R) 94 system (copyright 1995, Gaussian, Inc.),
 the Gaussian 92(TM) system (copyright 1992, Gaussian, Inc.),
 the Gaussian 90(TM) system (copyright 1990, Gaussian, Inc.),
 the Gaussian 88(TM) system (copyright 1988, Gaussian, Inc.),
 the Gaussian 86(TM) system (copyright 1986, Carnegie Mellon
 University), and the Gaussian 82(TM) system (copyright 1983,
 Carnegie Mellon University). Gaussian is a federally registered
 trademark of Gaussian, Inc.
  
 This software contains proprietary and confidential information,
 including trade secrets, belonging to Gaussian, Inc.
  
 This software is provided under written license and may be
 used, copied, transmitted, or stored only in accord with that
 written license.
  
 The following legend is applicable only to US Government
 contracts under FAR:
  
                    RESTRICTED RIGHTS LEGEND
  
 Use, reproduction and disclosure by the US Government is
 subject to restrictions as set forth in subparagraphs (a)
 and (c) of the Commercial Computer Software - Restricted
 Rights clause in FAR 52.227-19.
  
 Gaussian, Inc.
 340 Quinnipiac St., Bldg. 40, Wallingford CT 06492
  
  
 ---------------------------------------------------------------
 Warning -- This program may not be used in any manner that
 competes with the business of Gaussian, Inc. or will provide
 assistance to any competitor of Gaussian, Inc.  The licensee
 of this program is prohibited from giving any competitor of
 Gaussian, Inc. access to this program.  By using this program,
 the user acknowledges that Gaussian, Inc. is engaged in the
 business of creating and licensing software in the field of
 computational chemistry and represents and warrants to the
 licensee that it is not a competitor of Gaussian, Inc. and that
 it will not use this program in any manner prohibited above.
 ---------------------------------------------------------------
  

 Cite this work as:
 Gaussian 16, Revision A.03,
 M. J. Frisch, G. W. Trucks, H. B. Schlegel, G. E. Scuseria, 
 M. A. Robb, J. R. Cheeseman, G. Scalmani, V. Barone, 
 G. A. Petersson, H. Nakatsuji, X. Li, M. Caricato, A. V. Marenich, 
 J. Bloino, B. G. Janesko, R. Gomperts, B. Mennucci, H. P. Hratchian, 
 J. V. Ortiz, A. F. Izmaylov, J. L. Sonnenberg, D. Williams-Young, 
 F. Ding, F. Lipparini, F. Egidi, J. Goings, B. Peng, A. Petrone, 
 T. Henderson, D. Ranasinghe, V. G. Zakrzewski, J. Gao, N. Rega, 
 G. Zheng, W. Liang, M. Hada, M. Ehara, K. Toyota, R. Fukuda, 
 J. Hasegawa, M. Ishida, T. Nakajima, Y. Honda, O. Kitao, H. Nakai, 
 T. Vreven, K. Throssell, J. A. Montgomery, Jr., J. E. Peralta, 
 F. Ogliaro, M. J. Bearpark, J. J. Heyd, E. N. Brothers, K. N. Kudin, 
 V. N. Staroverov, T. A. Keith, R. Kobayashi, J. Normand, 
 K. Raghavachari, A. P. Rendell, J. C. Burant, S. S. Iyengar, 
 J. Tomasi, M. Cossi, J. M. Millam, M. Klene, C. Adamo, R. Cammi, 
 J. W. Ochterski, R. L. Martin, K. Morokuma, O. Farkas, 
 J. B. Foresman, and D. J. Fox, Gaussian, Inc., Wallingford CT, 2016.
 
 ******************************************
 Gaussian 16:  ES64L-G16RevA.03 25-Dec-2016
                18-Apr-2023 
 ******************************************
 %chk=/home/zz1/proj/gauss/new/chk/Na-COLLEX-1/173.chk
 %CPU=0-48
 SetSPE:  set environment variable "MP_BIND" = "yes"
 SetSPE:  set environment variable "MP_BLIST" = "0,1,2,3,4,5,6,7,8,9,10,11,12,13,14,15,16,17,18,19,20,21,22,23,24,25,26,27,28,29,30,31,32,33,34,35,36,37,38,39,40,41,42,43,44,45,46,47,48"
 Will use up to   49 processors via shared memory.
 ----------------------------------------------------
 # M062X/Def2SVP opt(MaxCyc=10)/freq SCRF pop(Always)
 ----------------------------------------------------
 1/6=10,18=20,19=15,26=3,38=1/1,3;
 2/9=110,12=2,17=6,18=5,40=1/2;
 3/5=43,7=101,11=2,25=1,30=1,70=2201,71=1,74=-55/1,2,3;
 4//1;
 5/5=2,38=5/2;
 6/7=2,8=2,9=2,10=2,28=1/1;
 7//1,2,3,16;
 1/6=10,18=20,19=15,26=3/3(2);
 2/9=110/2;
 99//99;
 2/9=110/2;
 3/5=43,7=101,11=2,25=1,30=1,70=2205,71=1,74=-55/1,2,3;
 4/5=5,16=3,69=1/1;
 5/5=2,38=5/2;
 6/7=2,8=2,9=2,10=2,28=1/1;
 7//1,2,3,16;
 1/6=10,18=20,19=15,26=3/3(-6);
 2/9=110/2;
 6/7=2,8=2,9=2,10=2,19=2,28=1/1;
 99/9=1/99;
 -----------
 Na-COLLEX-1
 -----------
 Symbolic Z-matrix:
 Charge =  0 Multiplicity = 2
 O                     14.44222   4.40567  -1.81633 
 C                     13.96915   4.58938  -0.84951 
 S                     14.84576   4.66665   0.54276 
 C                     13.5135   4.57956   1.35462 
 C                     12.41883   3.97874   0.70661 
 S                     10.64677   3.60364   1.57627 
 Na                    10.58236   5.45599   3.71876 
 S                     13.70036   5.10793   3.36978 
 S                     12.21679   3.68462  -0.74244 
 

 GradGradGradGradGradGradGradGradGradGradGradGradGradGradGradGradGradGrad
 Berny optimization.
 Initialization pass.
                           ----------------------------
                           !    Initial Parameters    !
                           ! (Angstroms and Degrees)  !
 --------------------------                            --------------------------
 ! Name  Definition              Value          Derivative Info.                !
 --------------------------------------------------------------------------------
 ! R1    R(1,2)                  1.0919         estimate D2E/DX2                !
 ! R2    R(2,3)                  1.6471         estimate D2E/DX2                !
 ! R3    R(2,9)                  1.975          estimate D2E/DX2                !
 ! R4    R(3,4)                  1.5626         estimate D2E/DX2                !
 ! R5    R(4,5)                  1.4068         estimate D2E/DX2                !
 ! R6    R(4,8)                  2.0916         estimate D2E/DX2                !
 ! R7    R(5,6)                  2.0093         estimate D2E/DX2                !
 ! R8    R(5,9)                  1.4923         estimate D2E/DX2                !
 ! R9    R(6,7)                  2.833          estimate D2E/DX2                !
 ! A1    A(1,2,3)              121.7199         estimate D2E/DX2                !
 ! A2    A(1,2,9)              110.8134         estimate D2E/DX2                !
 ! A3    A(3,2,9)              116.6079         estimate D2E/DX2                !
 ! A4    A(2,3,4)               89.0143         estimate D2E/DX2                !
 ! A5    A(3,4,5)              116.6092         estimate D2E/DX2                !
 ! A6    A(3,4,8)              114.225          estimate D2E/DX2                !
 ! A7    A(5,4,8)              128.4014         estimate D2E/DX2                !
 ! A8    A(4,5,6)              124.5137         estimate D2E/DX2                !
 ! A9    A(4,5,9)              129.5511         estimate D2E/DX2                !
 ! A10   A(6,5,9)              105.3119         estimate D2E/DX2                !
 ! A11   A(5,6,7)              103.0216         estimate D2E/DX2                !
 ! A12   A(2,9,5)               80.9228         estimate D2E/DX2                !
 ! D1    D(1,2,3,4)           -167.1189         estimate D2E/DX2                !
 ! D2    D(9,2,3,4)            -26.1482         estimate D2E/DX2                !
 ! D3    D(1,2,9,5)            164.6975         estimate D2E/DX2                !
 ! D4    D(3,2,9,5)             19.6608         estimate D2E/DX2                !
 ! D5    D(2,3,4,5)             24.1336         estimate D2E/DX2                !
 ! D6    D(2,3,4,8)           -165.0276         estimate D2E/DX2                !
 ! D7    D(3,4,5,6)            174.6039         estimate D2E/DX2                !
 ! D8    D(3,4,5,9)            -15.8158         estimate D2E/DX2                !
 ! D9    D(8,4,5,6)              5.2807         estimate D2E/DX2                !
 ! D10   D(8,4,5,9)            174.861          estimate D2E/DX2                !
 ! D11   D(4,5,6,7)             23.2568         estimate D2E/DX2                !
 ! D12   D(9,5,6,7)           -148.43           estimate D2E/DX2                !
 ! D13   D(4,5,9,2)             -2.6601         estimate D2E/DX2                !
 ! D14   D(6,5,9,2)            168.4515         estimate D2E/DX2                !
 --------------------------------------------------------------------------------
 Trust Radius=3.00D-01 FncErr=1.00D-07 GrdErr=1.00D-06 EigMax=2.50D+02 EigMin=1.00D-04
 Number of steps in this run=     10 maximum allowed number of steps=    100.
 GradGradGradGradGradGradGradGradGradGradGradGradGradGradGradGradGradGrad

                          Input orientation:                          
 ---------------------------------------------------------------------
 Center     Atomic      Atomic             Coordinates (Angstroms)
 Number     Number       Type             X           Y           Z
 ---------------------------------------------------------------------
      1          8           0       14.442220    4.405670   -1.816330
      2          6           0       13.969150    4.589380   -0.849510
      3         16           0       14.845760    4.666650    0.542760
      4          6           0       13.513500    4.579560    1.354620
      5          6           0       12.418830    3.978740    0.706610
      6         16           0       10.646770    3.603640    1.576270
      7         11           0       10.582360    5.455990    3.718760
      8         16           0       13.700360    5.107930    3.369780
      9         16           0       12.216790    3.684620   -0.742440
 ---------------------------------------------------------------------
                    Distance matrix (angstroms):
                    1          2          3          4          5
     1  O    0.000000
     2  C    1.091918   0.000000
     3  S    2.407542   1.647068   0.000000
     4  C    3.308728   2.250756   1.562568   0.000000
     5  C    3.262147   2.279887   2.527856   1.406842   0.000000
     6  S    5.153487   4.230166   4.453050   3.036394   2.009280
     7  Na   6.829269   5.752430   5.374627   3.866377   3.824649
     8  S    5.285760   4.259525   3.081998   2.091641   3.163837
     9  S    2.574042   1.975049   3.086682   2.622982   1.492338
                    6          7          8          9
     6  S    0.000000
     7  Na   2.832951   0.000000
     8  S    3.847594   3.156716   0.000000
     9  S    2.801417   5.070643   4.597515   0.000000
 Stoichiometry    C3NaOS4(2)
 Framework group  C1[X(C3NaOS4)]
 Deg. of freedom    21
 Full point group                 C1      NOp   1
 Largest Abelian subgroup         C1      NOp   1
 Largest concise Abelian subgroup C1      NOp   1
                         Standard orientation:                         
 ---------------------------------------------------------------------
 Center     Atomic      Atomic             Coordinates (Angstroms)
 Number     Number       Type             X           Y           Z
 ---------------------------------------------------------------------
      1          8           0       -3.299596   -0.116344    0.422466
      2          6           0       -2.219206    0.041800    0.428363
      3         16           0       -1.546435    1.444949   -0.111435
      4          6           0       -0.149052    0.745732   -0.105345
      5          6           0       -0.145870   -0.657012   -0.212589
      6         16           0        1.510120   -1.781914   -0.384345
      7         11           0        3.522648   -0.129813    0.731856
      8         16           0        1.470252    2.062776   -0.240297
      9         16           0       -1.263162   -1.627338   -0.019717
 ---------------------------------------------------------------------
 Rotational constants (GHZ):           1.1850154           0.6212385           0.4247057
 Standard basis: def2SVP (5D, 7F)
 There are   152 symmetry adapted cartesian basis functions of A   symmetry.
 There are   143 symmetry adapted basis functions of A   symmetry.
   143 basis functions,   282 primitive gaussians,   152 cartesian basis functions
    51 alpha electrons       50 beta electrons
       nuclear repulsion energy       778.7969120835 Hartrees.
 NAtoms=    9 NActive=    9 NUniq=    9 SFac= 1.00D+00 NAtFMM=   60 NAOKFM=F Big=F
 Integral buffers will be    131072 words long.
 Raffenetti 2 integral format.
 Two-electron integral symmetry is turned on.
 ------------------------------------------------------------------------------
 Polarizable Continuum Model (PCM)
 =================================
 Model                : PCM.
 Atomic radii         : UFF (Universal Force Field).
 Polarization charges : Total charges.
 Charge compensation  : None.
 Solution method      : On-the-fly selection.
 Cavity type          : Scaled VdW (van der Waals Surface) (Alpha=1.100).
 Cavity algorithm     : GePol (No added spheres)
                        Default sphere list used, NSphG=    9.
                        Lebedev-Laikov grids with approx.  5.0 points / Ang**2.
                        Smoothing algorithm: York/Karplus (Gamma=1.0000).
                        Polarization charges: spherical gaussians, with
                                              point-specific exponents (IZeta= 3).
                        Self-potential: point-specific (ISelfS= 7).
                        Self-field    : sphere-specific E.n sum rule (ISelfD= 2).
 1st derivatives      : Analytical E(r).r(x)/FMM algorithm (CHGder, D1EAlg=3).
                        Cavity 1st derivative terms included.
 Solvent              : Water, Eps=  78.355300 Eps(inf)=   1.777849
 ------------------------------------------------------------------------------
 Spheres list:
 ISph  on   Nord     Re0    Alpha      Xe            Ye            Ze
    1   O      1    1.7500  1.100     -3.299596     -0.116344      0.422466
    2   C      2    1.9255  1.100     -2.219206      0.041800      0.428363
    3   S      3    2.0175  1.100     -1.546435      1.444949     -0.111435
    4   C      4    1.9255  1.100     -0.149052      0.745732     -0.105345
    5   C      5    1.9255  1.100     -0.145870     -0.657012     -0.212589
    6   S      6    2.0175  1.100      1.510120     -1.781914     -0.384345
    7  Na      7    1.4915  1.100      3.522648     -0.129813      0.731856
    8   S      8    2.0175  1.100      1.470252      2.062776     -0.240297
    9   S      9    2.0175  1.100     -1.263162     -1.627338     -0.019717
 ------------------------------------------------------------------------------
 One-electron integrals computed using PRISM.
 PrsmSu:  requested number of processors reduced to:  30 ShMem   1 Linda.
   1 Symmetry operations used in ECPInt.
 ECPInt:  NShTT=    2016 NPrTT=    9620 LenC2=    1915 LenP2D=    6310.
 LDataN:  DoStor=T MaxTD1= 4 Len=   56
 Number of processors reduced to  38 by ecpmxn.
 NBasis=   143 RedAO= T EigKep=  1.74D-03  NBF=   143
 NBsUse=   143 1.00D-06 EigRej= -1.00D+00 NBFU=   143
 ExpMin= 2.80D-02 ExpMax= 9.18D+03 ExpMxC= 1.38D+03 IAcc=3 IRadAn=         5 AccDes= 0.00D+00
 Harris functional with IExCor= 1009 and IRadAn=       5 diagonalized for initial guess.
 HarFok:  IExCor= 1009 AccDes= 0.00D+00 IRadAn=         5 IDoV= 1 UseB2=F ITyADJ=14
 ICtDFT=  3500011 ScaDFX=  1.000000  1.000000  1.000000  1.000000
 FoFCou: FMM=F IPFlag=           0 FMFlag=      100000 FMFlg1=           0
         NFxFlg=           0 DoJE=T BraDBF=F KetDBF=T FulRan=T
         wScrn=  0.000000 ICntrl=       500 IOpCl=  0 I1Cent=   200000004 NGrid=           0
         NMat0=    1 NMatS0=      1 NMatT0=    0 NMatD0=    1 NMtDS0=    0 NMtDT0=    0
 Petite list used in FoFCou.
 Initial guess <Sx>= 0.0000 <Sy>= 0.0000 <Sz>= 0.5000 <S**2>= 0.7500 S= 0.5000
 Requested convergence on RMS density matrix=1.00D-08 within 128 cycles.
 Requested convergence on MAX density matrix=1.00D-06.
 Requested convergence on             energy=1.00D-06.
 No special actions if energy rises.
 CoulSu:  requested number of processors reduced to:  47 ShMem   1 Linda.
 Inv3:  Mode=1 IEnd=     6660300.
 Iteration    1 A*A^-1 deviation from unit magnitude is 2.89D-15 for    914.
 Iteration    1 A*A^-1 deviation from orthogonality  is 1.54D-15 for   1167    394.
 Iteration    1 A^-1*A deviation from unit magnitude is 3.55D-15 for    374.
 Iteration    1 A^-1*A deviation from orthogonality  is 1.38D-13 for    725    702.
 CoulSu:  requested number of processors reduced to:  47 ShMem   1 Linda.
 CoulSu:  requested number of processors reduced to:  47 ShMem   1 Linda.
 Restarting incremental Fock formation.
 CoulSu:  requested number of processors reduced to:  46 ShMem   1 Linda.
 Error on total polarization charges =  0.01351
 SCF Done:  E(UM062X) =  -1943.62519737     A.U. after   24 cycles
            NFock= 24  Conv=0.94D-08     -V/T= 2.0020
 <Sx>= 0.0000 <Sy>= 0.0000 <Sz>= 0.5000 <S**2>= 0.7560 S= 0.5030
 <L.S>=  0.00000000000    
 Annihilation of the first spin contaminant:
 S**2 before annihilation     0.7560,   after     0.7500

 **********************************************************************

            Population analysis using the SCF density.

 **********************************************************************

 Orbital symmetries:
 Alpha Orbitals:
       Occupied  (A) (A) (A) (A) (A) (A) (A) (A) (A) (A) (A) (A)
                 (A) (A) (A) (A) (A) (A) (A) (A) (A) (A) (A) (A)
                 (A) (A) (A) (A) (A) (A) (A) (A) (A) (A) (A) (A)
                 (A) (A) (A) (A) (A) (A) (A) (A) (A) (A) (A) (A)
                 (A) (A) (A)
       Virtual   (A) (A) (A) (A) (A) (A) (A) (A) (A) (A) (A) (A)
                 (A) (A) (A) (A) (A) (A) (A) (A) (A) (A) (A) (A)
                 (A) (A) (A) (A) (A) (A) (A) (A) (A) (A) (A) (A)
                 (A) (A) (A) (A) (A) (A) (A) (A) (A) (A) (A) (A)
                 (A) (A) (A) (A) (A) (A) (A) (A) (A) (A) (A) (A)
                 (A) (A) (A) (A) (A) (A) (A) (A) (A) (A) (A) (A)
                 (A) (A) (A) (A) (A) (A) (A) (A) (A) (A) (A) (A)
                 (A) (A) (A) (A) (A) (A) (A) (A)
 Beta  Orbitals:
       Occupied  (A) (A) (A) (A) (A) (A) (A) (A) (A) (A) (A) (A)
                 (A) (A) (A) (A) (A) (A) (A) (A) (A) (A) (A) (A)
                 (A) (A) (A) (A) (A) (A) (A) (A) (A) (A) (A) (A)
                 (A) (A) (A) (A) (A) (A) (A) (A) (A) (A) (A) (A)
                 (A) (A)
       Virtual   (A) (A) (A) (A) (A) (A) (A) (A) (A) (A) (A) (A)
                 (A) (A) (A) (A) (A) (A) (A) (A) (A) (A) (A) (A)
                 (A) (A) (A) (A) (A) (A) (A) (A) (A) (A) (A) (A)
                 (A) (A) (A) (A) (A) (A) (A) (A) (A) (A) (A) (A)
                 (A) (A) (A) (A) (A) (A) (A) (A) (A) (A) (A) (A)
                 (A) (A) (A) (A) (A) (A) (A) (A) (A) (A) (A) (A)
                 (A) (A) (A) (A) (A) (A) (A) (A) (A) (A) (A) (A)
                 (A) (A) (A) (A) (A) (A) (A) (A) (A)
 The electronic state is 2-A.
 Alpha  occ. eigenvalues --  -89.95353 -89.94179 -89.87270 -89.84866 -39.11538
 Alpha  occ. eigenvalues --  -19.67583 -10.69466 -10.63181 -10.63104  -8.32753
 Alpha  occ. eigenvalues --   -8.31446  -8.22985  -8.20822  -6.24950  -6.24718
 Alpha  occ. eigenvalues --   -6.24471  -6.23560  -6.23422  -6.23243  -6.15415
 Alpha  occ. eigenvalues --   -6.15198  -6.14667  -6.13284  -6.12804  -6.12588
 Alpha  occ. eigenvalues --   -2.37086  -1.28461  -1.25101  -1.25088  -1.25038
 Alpha  occ. eigenvalues --   -1.04879  -0.95115  -0.79397  -0.72801  -0.71117
 Alpha  occ. eigenvalues --   -0.66785  -0.63777  -0.59260  -0.58121  -0.51732
 Alpha  occ. eigenvalues --   -0.49990  -0.48557  -0.42301  -0.40489  -0.38841
 Alpha  occ. eigenvalues --   -0.31904  -0.30327  -0.28654  -0.27587  -0.25440
 Alpha  occ. eigenvalues --   -0.24451
 Alpha virt. eigenvalues --   -0.03985  -0.00202   0.00361   0.01925   0.03698
 Alpha virt. eigenvalues --    0.06488   0.08056   0.09968   0.10442   0.13598
 Alpha virt. eigenvalues --    0.14321   0.21706   0.25683   0.27603   0.29664
 Alpha virt. eigenvalues --    0.31376   0.32441   0.33773   0.35072   0.36822
 Alpha virt. eigenvalues --    0.38281   0.43769   0.45543   0.48233   0.49832
 Alpha virt. eigenvalues --    0.51046   0.51665   0.54269   0.57383   0.58900
 Alpha virt. eigenvalues --    0.59345   0.61579   0.62790   0.63522   0.65959
 Alpha virt. eigenvalues --    0.67802   0.68773   0.70566   0.72520   0.72697
 Alpha virt. eigenvalues --    0.75130   0.76062   0.76163   0.77082   0.78066
 Alpha virt. eigenvalues --    0.78827   0.81112   0.81598   0.82064   0.82624
 Alpha virt. eigenvalues --    0.86072   0.87347   0.88526   0.90156   0.90996
 Alpha virt. eigenvalues --    0.93141   0.98140   1.00260   1.00746   1.01494
 Alpha virt. eigenvalues --    1.03435   1.10220   1.12267   1.13148   1.15490
 Alpha virt. eigenvalues --    1.18586   1.20095   1.23820   1.26581   1.32001
 Alpha virt. eigenvalues --    1.33230   1.48523   1.54201   1.73298   1.75621
 Alpha virt. eigenvalues --    1.82911   1.85327   1.89750   1.98132   2.02634
 Alpha virt. eigenvalues --    2.08447   2.15071   2.20724   2.30103   2.55150
 Alpha virt. eigenvalues --    2.63353   2.64803   2.72457   2.73332   3.28638
 Alpha virt. eigenvalues --    3.35182   3.73454
  Beta  occ. eigenvalues --  -89.95297 -89.94072 -89.87037 -89.84766 -39.11536
  Beta  occ. eigenvalues --  -19.67479 -10.69474 -10.63087 -10.62921  -8.32735
  Beta  occ. eigenvalues --   -8.31411  -8.22905  -8.20787  -6.24944  -6.24714
  Beta  occ. eigenvalues --   -6.24282  -6.23530  -6.23384  -6.22930  -6.15373
  Beta  occ. eigenvalues --   -6.14593  -6.14493  -6.13250  -6.12572  -6.12500
  Beta  occ. eigenvalues --   -2.37084  -1.28232  -1.25100  -1.25091  -1.25038
  Beta  occ. eigenvalues --   -1.04294  -0.94716  -0.78439  -0.72201  -0.69825
  Beta  occ. eigenvalues --   -0.66241  -0.63435  -0.58683  -0.57633  -0.51054
  Beta  occ. eigenvalues --   -0.49429  -0.46548  -0.41703  -0.39578  -0.37895
  Beta  occ. eigenvalues --   -0.31401  -0.28443  -0.26825  -0.25442  -0.24750
  Beta virt. eigenvalues --   -0.11510  -0.03581  -0.00013   0.01886   0.03006
  Beta virt. eigenvalues --    0.04336   0.06773   0.07963   0.09857   0.10609
  Beta virt. eigenvalues --    0.13835   0.14336   0.22167   0.25839   0.27939
  Beta virt. eigenvalues --    0.29894   0.31410   0.32379   0.33639   0.35079
  Beta virt. eigenvalues --    0.37142   0.38335   0.44007   0.45896   0.48319
  Beta virt. eigenvalues --    0.50155   0.51375   0.52716   0.54773   0.57960
  Beta virt. eigenvalues --    0.59589   0.59796   0.62011   0.63168   0.64300
  Beta virt. eigenvalues --    0.66710   0.68454   0.69224   0.71111   0.73066
  Beta virt. eigenvalues --    0.73235   0.75977   0.76637   0.76744   0.77833
  Beta virt. eigenvalues --    0.78657   0.79617   0.81839   0.82402   0.82633
  Beta virt. eigenvalues --    0.83371   0.86644   0.87985   0.88835   0.90889
  Beta virt. eigenvalues --    0.91588   0.93656   0.98640   1.00574   1.01036
  Beta virt. eigenvalues --    1.02056   1.03755   1.10438   1.12561   1.13393
  Beta virt. eigenvalues --    1.15811   1.18876   1.20379   1.24039   1.26930
  Beta virt. eigenvalues --    1.32350   1.33523   1.48835   1.56279   1.73909
  Beta virt. eigenvalues --    1.75974   1.84209   1.86098   1.90063   1.99492
  Beta virt. eigenvalues --    2.03274   2.08760   2.16127   2.21899   2.32347
  Beta virt. eigenvalues --    2.55612   2.64543   2.67125   2.72873   2.73555
  Beta virt. eigenvalues --    3.28982   3.35279   3.73534
          Condensed to atoms (all electrons):
               1          2          3          4          5          6
     1  O    7.540133   0.727012  -0.107196   0.009329   0.002472  -0.000063
     2  C    0.727012   5.008874   0.210861  -0.092496  -0.126324   0.006657
     3  S   -0.107196   0.210861  15.600496   0.262937  -0.058898   0.000740
     4  C    0.009329  -0.092496   0.262937   5.439351   0.419907  -0.029930
     5  C    0.002472  -0.126324  -0.058898   0.419907   5.368031   0.230033
     6  S   -0.000063   0.006657   0.000740  -0.029930   0.230033  16.149759
     7  Na   0.000070  -0.002629   0.002747  -0.006803  -0.011035   0.134969
     8  S   -0.000017   0.002617  -0.043397   0.282581  -0.021216  -0.006140
     9  S   -0.100185   0.264386  -0.102600  -0.100838   0.349224  -0.070768
               7          8          9
     1  O    0.000070  -0.000017  -0.100185
     2  C   -0.002629   0.002617   0.264386
     3  S    0.002747  -0.043397  -0.102600
     4  C   -0.006803   0.282581  -0.100838
     5  C   -0.011035  -0.021216   0.349224
     6  S    0.134969  -0.006140  -0.070768
     7  Na  10.084929   0.098609   0.002347
     8  S    0.098609  16.002606   0.000390
     9  S    0.002347   0.000390  15.551120
          Atomic-Atomic Spin Densities.
               1          2          3          4          5          6
     1  O    0.064730  -0.012046  -0.002859   0.000336   0.001233   0.000000
     2  C   -0.012046  -0.017073   0.027776  -0.010348   0.000171   0.000235
     3  S   -0.002859   0.027776   0.098545  -0.047288  -0.017778   0.000008
     4  C    0.000336  -0.010348  -0.047288   0.278792   0.087565  -0.004122
     5  C    0.001233   0.000171  -0.017778   0.087565   0.148508  -0.031993
     6  S    0.000000   0.000235   0.000008  -0.004122  -0.031993   0.145384
     7  Na  -0.000007   0.000123   0.000227  -0.003101  -0.001906   0.002105
     8  S   -0.000001   0.000140   0.006961  -0.059114  -0.003423   0.001333
     9  S   -0.003891   0.007737   0.005598  -0.014533  -0.068862   0.009615
               7          8          9
     1  O   -0.000007  -0.000001  -0.003891
     2  C    0.000123   0.000140   0.007737
     3  S    0.000227   0.006961   0.005598
     4  C   -0.003101  -0.059114  -0.014533
     5  C   -0.001906  -0.003423  -0.068862
     6  S    0.002105   0.001333   0.009615
     7  Na  -0.000147   0.000801   0.000992
     8  S    0.000801   0.331580   0.000133
     9  S    0.000992   0.000133   0.206050
 Mulliken charges and spin densities:
               1          2
     1  O   -0.071554   0.047496
     2  C    0.001043  -0.003287
     3  S    0.234310   0.071190
     4  C   -0.184037   0.228187
     5  C   -0.152193   0.113514
     6  S   -0.415257   0.122564
     7  Na   0.696796  -0.000913
     8  S   -0.316032   0.278411
     9  S    0.206924   0.142838
 Sum of Mulliken charges =  -0.00000   1.00000
 Mulliken charges and spin densities with hydrogens summed into heavy atoms:
               1          2
     1  O   -0.071554   0.047496
     2  C    0.001043  -0.003287
     3  S    0.234310   0.071190
     4  C   -0.184037   0.228187
     5  C   -0.152193   0.113514
     6  S   -0.415257   0.122564
     7  Na   0.696796  -0.000913
     8  S   -0.316032   0.278411
     9  S    0.206924   0.142838
 Electronic spatial extent (au):  <R**2>=           2305.2756
 Charge=             -0.0000 electrons
 Dipole moment (field-independent basis, Debye):
    X=              5.9003    Y=             -0.0329    Z=              4.6641  Tot=              7.5212
 Quadrupole moment (field-independent basis, Debye-Ang):
   XX=            -41.3257   YY=            -93.0117   ZZ=            -77.6037
   XY=             -1.7509   XZ=             14.6320   YZ=             -1.4258
 Traceless Quadrupole moment (field-independent basis, Debye-Ang):
   XX=             29.3213   YY=            -22.3646   ZZ=             -6.9567
   XY=             -1.7509   XZ=             14.6320   YZ=             -1.4258
 Octapole moment (field-independent basis, Debye-Ang**2):
  XXX=            229.4558  YYY=             -5.9389  ZZZ=             20.4740  XYY=            -17.2583
  XXY=             -2.7410  XXZ=             48.5875  XZZ=             12.9374  YZZ=             -0.2087
  YYZ=              7.4093  XYZ=             -2.6634
 Hexadecapole moment (field-independent basis, Debye-Ang**3):
 XXXX=           -952.7330 YYYY=          -1162.9410 ZZZZ=           -134.7789 XXXY=            -36.8477
 XXXZ=            214.7437 YYYX=             -0.0670 YYYZ=             -7.6749 ZZZX=             49.8798
 ZZZY=             -4.6801 XXYY=           -444.8083 XXZZ=           -247.3363 YYZZ=           -213.9513
 XXYZ=             -8.4770 YYXZ=             18.5705 ZZXY=             -1.7829
 N-N= 7.787969120835D+02 E-N=-6.177592739447D+03  KE= 1.939673479935D+03
                          Isotropic Fermi Contact Couplings
        Atom                 a.u.       MegaHertz       Gauss      10(-4) cm-1
     1  O(17)              0.01301      -7.88443      -2.81336      -2.62996
     2  C(13)              0.00071       0.79978       0.28538       0.26678
     3  S(33)              0.00750       2.57448       0.91864       0.85875
     4  C(13)              0.04380      49.23832      17.56946      16.42414
     5  C(13)              0.01503      16.89684       6.02921       5.63618
     6  S(33)              0.02097       7.20318       2.57028       2.40272
     7  Na(23)             0.00312       3.68845       1.31613       1.23034
     8  S(33)              0.04388      15.07105       5.37772       5.02716
     9  S(33)              0.01043       3.58412       1.27890       1.19553
 --------------------------------------------------------
       Center         ----  Spin Dipole Couplings  ----
                      3XX-RR        3YY-RR        3ZZ-RR
 --------------------------------------------------------
     1   Atom       -0.100214     -0.104975      0.205190
     2   Atom        0.013208     -0.002222     -0.010985
     3   Atom       -0.166985     -0.118973      0.285958
     4   Atom       -0.159744     -0.151801      0.311545
     5   Atom       -0.082334     -0.073255      0.155589
     6   Atom       -0.202223     -0.263052      0.465276
     7   Atom        0.003523     -0.000513     -0.003010
     8   Atom       -0.595328     -0.609329      1.204657
     9   Atom       -0.188611     -0.264546      0.453157
 --------------------------------------------------------
                        XY            XZ            YZ
 --------------------------------------------------------
     1   Atom        0.005505      0.010815      0.058581
     2   Atom        0.008597      0.004631      0.004529
     3   Atom        0.041743      0.104094      0.143597
     4   Atom        0.005683      0.020215     -0.008038
     5   Atom       -0.009632      0.057837     -0.039793
     6   Atom        0.003675      0.270011     -0.121623
     7   Atom       -0.000120      0.001131     -0.000252
     8   Atom       -0.053723      0.201852     -0.001538
     9   Atom       -0.057981      0.251651     -0.071817
 --------------------------------------------------------


 ---------------------------------------------------------------------------------
              Anisotropic Spin Dipole Couplings in Principal Axis System
 ---------------------------------------------------------------------------------

       Atom             a.u.   MegaHertz   Gauss  10(-4) cm-1        Axes

              Baa    -0.1164     8.425     3.006     2.810 -0.2145  0.9622 -0.1680
     1 O(17)  Bbb    -0.0999     7.227     2.579     2.411  0.9760  0.2047 -0.0739
              Bcc     0.2163   -15.652    -5.585    -5.221  0.0367  0.1799  0.9830
 
              Baa    -0.0129    -1.738    -0.620    -0.580 -0.0485 -0.3552  0.9335
     2 C(13)  Bbb    -0.0054    -0.720    -0.257    -0.240 -0.4610  0.8371  0.2946
              Bcc     0.0183     2.457     0.877     0.820  0.8861  0.4160  0.2044
 
              Baa    -0.1932    -7.920    -2.826    -2.642  0.9416 -0.3187 -0.1091
     3 S(33)  Bbb    -0.1625    -6.662    -2.377    -2.222  0.2638  0.8991 -0.3492
              Bcc     0.3557    14.582     5.203     4.864  0.2093  0.3000  0.9307
 
              Baa    -0.1637   -21.966    -7.838    -7.327  0.8890 -0.4556 -0.0455
     4 C(13)  Bbb    -0.1488   -19.974    -7.127    -6.663  0.4559  0.8900 -0.0045
              Bcc     0.3125    41.940    14.965    13.990  0.0426 -0.0168  0.9990
 
              Baa    -0.0957   -12.837    -4.581    -4.282  0.9751  0.0286 -0.2199
     5 C(13)  Bbb    -0.0800   -10.732    -3.829    -3.580  0.0082  0.9863  0.1646
              Bcc     0.1756    23.569     8.410     7.862  0.2216 -0.1623  0.9615
 
              Baa    -0.3328   -13.645    -4.869    -4.551  0.7092 -0.6206 -0.3345
     6 S(33)  Bbb    -0.2434    -9.979    -3.561    -3.329  0.6261  0.7725 -0.1060
              Bcc     0.5762    23.623     8.429     7.880  0.3242 -0.1343  0.9364
 
              Baa    -0.0032    -0.455    -0.162    -0.152 -0.1634  0.0843  0.9829
     7 Na(23) Bbb    -0.0005    -0.071    -0.025    -0.024  0.0512  0.9957 -0.0769
              Bcc     0.0037     0.525     0.187     0.175  0.9852 -0.0378  0.1670
 
              Baa    -0.6669   -27.343    -9.757    -9.121  0.7300  0.6790 -0.0782
     8 S(33)  Bbb    -0.5601   -22.965    -8.194    -7.660 -0.6745  0.7342  0.0778
              Bcc     1.2270    50.308    17.951    16.781  0.1102 -0.0041  0.9939
 
              Baa    -0.3059   -12.540    -4.475    -4.183  0.7008  0.6936 -0.1667
     9 S(33)  Bbb    -0.2435    -9.982    -3.562    -3.330 -0.6333  0.7125  0.3022
              Bcc     0.5493    22.522     8.037     7.513  0.3284 -0.1062  0.9385
 

 ---------------------------------------------------------------------------------

 PrsmSu:  requested number of processors reduced to:  30 ShMem   1 Linda.
   1 Symmetry operations used in ECPInt.
 ECPInt:  NShTT=    2016 NPrTT=    9620 LenC2=    1915 LenP2D=    6310.
 LDataN:  DoStor=T MaxTD1= 5 Len=  102
 Number of processors reduced to  39 by ecpmxn.
 D1PCM: PCM CHGder 1st derivatives, ID1Alg=3 FixD1E=F DoIter=F DoCFld=F I1PDM=0.
 CoulSu:  requested number of processors reduced to:  48 ShMem   1 Linda.
 CoulSu:  requested number of processors reduced to:  47 ShMem   1 Linda.
 CoulSu:  requested number of processors reduced to:  47 ShMem   1 Linda.
 CoulSu:  requested number of processors reduced to:  48 ShMem   1 Linda.
 CoulSu:  requested number of processors reduced to:  29 ShMem   1 Linda.
 CoulSu:  requested number of processors reduced to:  30 ShMem   1 Linda.
 CoulSu:  requested number of processors reduced to:  48 ShMem   1 Linda.
 CoulSu:  requested number of processors reduced to:  48 ShMem   1 Linda.
 Calling FoFJK, ICntrl=      2127 FMM=F ISym2X=0 I1Cent= 0 IOpClX= 1 NMat=1 NMatS=1 NMatT=0.
 ***** Axes restored to original set *****
 -------------------------------------------------------------------
 Center     Atomic                   Forces (Hartrees/Bohr)
 Number     Number              X              Y              Z
 -------------------------------------------------------------------
      1        8           0.114829729   -0.003617092   -0.239022380
      2        6          -0.098242581   -0.034703800    0.065554061
      3       16           0.112733823    0.034182671    0.012385056
      4        6          -0.097048876   -0.003576546    0.172330638
      5        6          -0.086547569    0.025788652    0.245658291
      6       16           0.054346104    0.011291265   -0.011626350
      7       11           0.005194619   -0.002837845   -0.002648640
      8       16          -0.015495851   -0.022108114   -0.082666147
      9       16           0.010230602   -0.004419192   -0.159964528
 -------------------------------------------------------------------
 Cartesian Forces:  Max     0.245658291 RMS     0.095001170

 GradGradGradGradGradGradGradGradGradGradGradGradGradGradGradGradGradGrad
 Berny optimization.
 FormGI is forming the generalized inverse of G from B-inverse, IUseBI=4.
 Internal  Forces:  Max     0.262000743 RMS     0.072937039
 Search for a local minimum.
 Step number   1 out of a maximum of   10
 All quantities printed in internal units (Hartrees-Bohrs-Radians)
 Mixed Optimization -- RFO/linear search
 Second derivative matrix not updated -- first step.
 ITU=  0
     Eigenvalues ---    0.00230   0.01882   0.02336   0.02684   0.02851
     Eigenvalues ---    0.04166   0.04889   0.12075   0.14727   0.16723
     Eigenvalues ---    0.22054   0.24240   0.24723   0.24862   0.24881
     Eigenvalues ---    0.25000   0.40232   0.43528   0.56932   0.76079
     Eigenvalues ---    1.85125
 RFO step:  Lambda=-2.23312835D-01 EMin= 2.30000000D-03
 Linear search not attempted -- first point.
 Maximum step size (   0.300) exceeded in Quadratic search.
    -- Step size scaled by   0.522
 Iteration  1 RMS(Cart)=  0.08125341 RMS(Int)=  0.00220791
 Iteration  2 RMS(Cart)=  0.00189983 RMS(Int)=  0.00059341
 Iteration  3 RMS(Cart)=  0.00000391 RMS(Int)=  0.00059340
 Iteration  4 RMS(Cart)=  0.00000000 RMS(Int)=  0.00059340
 Variable       Old X    -DE/DX   Delta X   Delta X   Delta X     New X
                                 (Linear)    (Quad)   (Total)
    R1        2.06343   0.26200   0.00000   0.06598   0.06598   2.12940
    R2        3.11251   0.10926   0.00000   0.08218   0.08218   3.19468
    R3        3.73230   0.01867   0.00000   0.01772   0.01794   3.75024
    R4        2.95283   0.14574   0.00000   0.09531   0.09512   3.04794
    R5        2.65855  -0.02248   0.00000  -0.01215  -0.01230   2.64624
    R6        3.95263  -0.08661   0.00000  -0.13151  -0.13151   3.82112
    R7        3.79699  -0.06029   0.00000  -0.08499  -0.08499   3.71200
    R8        2.82011   0.20426   0.00000   0.10749   0.10755   2.92766
    R9        5.35350  -0.00394   0.00000  -0.00757  -0.00757   5.34593
    A1        2.12441   0.03505   0.00000   0.05335   0.05237   2.17679
    A2        1.93406   0.05191   0.00000   0.07294   0.07186   2.00592
    A3        2.03519  -0.05801   0.00000  -0.06788  -0.06931   1.96589
    A4        1.55359   0.06815   0.00000   0.07146   0.07112   1.62472
    A5        2.03521  -0.01703   0.00000  -0.00759  -0.00768   2.02753
    A6        1.99360   0.02371   0.00000   0.02112   0.02103   2.01463
    A7        2.24103  -0.00512   0.00000  -0.01001  -0.00995   2.23108
    A8        2.17317  -0.00656   0.00000  -0.01217  -0.01214   2.16103
    A9        2.26109  -0.05503   0.00000  -0.05028  -0.05044   2.21065
   A10        1.83804   0.06196   0.00000   0.06328   0.06337   1.90141
   A11        1.79807  -0.02384   0.00000  -0.02631  -0.02631   1.77175
   A12        1.41237   0.07706   0.00000   0.08486   0.08525   1.49762
    D1       -2.91678  -0.02881   0.00000  -0.05022  -0.05061  -2.96738
    D2       -0.45637   0.03433   0.00000   0.06667   0.06566  -0.39072
    D3        2.87451   0.02248   0.00000   0.04498   0.04509   2.91961
    D4        0.34315  -0.03333   0.00000  -0.05952  -0.05849   0.28466
    D5        0.42121  -0.01239   0.00000  -0.03285  -0.03454   0.38667
    D6       -2.88027  -0.00362   0.00000  -0.01288  -0.01373  -2.89400
    D7        3.04741   0.00468   0.00000   0.00886   0.00930   3.05671
    D8       -0.27604   0.01389   0.00000   0.02194   0.02182  -0.25422
    D9        0.09217  -0.00834   0.00000  -0.01777  -0.01786   0.07431
   D10        3.05190   0.00086   0.00000  -0.00469  -0.00534   3.04656
   D11        0.40591  -0.00758   0.00000  -0.01456  -0.01463   0.39128
   D12       -2.59059  -0.00577   0.00000  -0.01636  -0.01629  -2.60689
   D13       -0.04643   0.00854   0.00000   0.01604   0.01707  -0.02936
   D14        2.94003   0.01300   0.00000   0.02315   0.02362   2.96365
         Item               Value     Threshold  Converged?
 Maximum Force            0.262001     0.000450     NO 
 RMS     Force            0.072937     0.000300     NO 
 Maximum Displacement     0.204363     0.001800     NO 
 RMS     Displacement     0.081142     0.001200     NO 
 Predicted change in Energy=-9.799172D-02
 GradGradGradGradGradGradGradGradGradGradGradGradGradGradGradGradGradGrad

                          Input orientation:                          
 ---------------------------------------------------------------------
 Center     Atomic      Atomic             Coordinates (Angstroms)
 Number     Number       Type             X           Y           Z
 ---------------------------------------------------------------------
      1          8           0       14.528361    4.417550   -1.917453
      2          6           0       14.018524    4.560467   -0.922773
      3         16           0       14.819597    4.685778    0.560651
      4          6           0       13.451221    4.578601    1.407712
      5          6           0       12.367758    3.975526    0.757066
      6         16           0       10.642627    3.605020    1.620282
      7         11           0       10.673188    5.454939    3.760330
      8         16           0       13.592216    5.103856    3.355252
      9         16           0       12.242249    3.690442   -0.760547
 ---------------------------------------------------------------------
                    Distance matrix (angstroms):
                    1          2          3          4          5
     1  O    0.000000
     2  C    1.126831   0.000000
     3  S    2.509535   1.690553   0.000000
     4  C    3.498984   2.398608   1.612902   0.000000
     5  C    3.466503   2.426735   2.560185   1.400332   0.000000
     6  S    5.317397   4.333208   4.442739   2.980142   1.964305
     7  Na   6.940876   5.824329   5.293606   3.744363   3.752310
     8  S    5.398963   4.333417   3.080754   2.022050   3.085935
     9  S    2.663349   1.984544   3.062512   2.636623   1.549249
                    6          7          8          9
     6  S    0.000000
     7  Na   2.828947   0.000000
     8  S    3.735867   2.967840   0.000000
     9  S    2.869570   5.100366   4.556308   0.000000
 Stoichiometry    C3NaOS4(2)
 Framework group  C1[X(C3NaOS4)]
 Deg. of freedom    21
 Full point group                 C1      NOp   1
 Largest Abelian subgroup         C1      NOp   1
 Largest concise Abelian subgroup C1      NOp   1
                         Standard orientation:                         
 ---------------------------------------------------------------------
 Center     Atomic      Atomic             Coordinates (Angstroms)
 Number     Number       Type             X           Y           Z
 ---------------------------------------------------------------------
      1          8           0       -3.439284   -0.033275    0.411829
      2          6           0       -2.318142    0.077327    0.388270
      3         16           0       -1.497843    1.462301   -0.128380
      4          6           0       -0.064578    0.722615   -0.120036
      5          6           0       -0.090100   -0.674499   -0.211419
      6         16           0        1.519959   -1.790010   -0.359205
      7         11           0        3.494415   -0.078075    0.724188
      8         16           0        1.543320    1.943613   -0.231886
      9         16           0       -1.320896   -1.592630   -0.005628
 ---------------------------------------------------------------------
 Rotational constants (GHZ):           1.2377970           0.6047464           0.4223186
 Standard basis: def2SVP (5D, 7F)
 There are   152 symmetry adapted cartesian basis functions of A   symmetry.
 There are   143 symmetry adapted basis functions of A   symmetry.
   143 basis functions,   282 primitive gaussians,   152 cartesian basis functions
    51 alpha electrons       50 beta electrons
       nuclear repulsion energy       774.6210085436 Hartrees.
 NAtoms=    9 NActive=    9 NUniq=    9 SFac= 1.00D+00 NAtFMM=   60 NAOKFM=F Big=F
 Integral buffers will be    131072 words long.
 Raffenetti 2 integral format.
 Two-electron integral symmetry is turned on.
 ------------------------------------------------------------------------------
 Polarizable Continuum Model (PCM)
 =================================
 Model                : PCM.
 Atomic radii         : UFF (Universal Force Field).
 Polarization charges : Total charges.
 Charge compensation  : None.
 Solution method      : On-the-fly selection.
 Cavity type          : Scaled VdW (van der Waals Surface) (Alpha=1.100).
 Cavity algorithm     : GePol (No added spheres)
                        Default sphere list used, NSphG=    9.
                        Lebedev-Laikov grids with approx.  5.0 points / Ang**2.
                        Smoothing algorithm: York/Karplus (Gamma=1.0000).
                        Polarization charges: spherical gaussians, with
                                              point-specific exponents (IZeta= 3).
                        Self-potential: point-specific (ISelfS= 7).
                        Self-field    : sphere-specific E.n sum rule (ISelfD= 2).
 1st derivatives      : Analytical E(r).r(x)/FMM algorithm (CHGder, D1EAlg=3).
                        Cavity 1st derivative terms included.
 Solvent              : Water, Eps=  78.355300 Eps(inf)=   1.777849
 ------------------------------------------------------------------------------
 Spheres list:
 ISph  on   Nord     Re0    Alpha      Xe            Ye            Ze
    1   O      1    1.7500  1.100     -3.439284     -0.033275      0.411829
    2   C      2    1.9255  1.100     -2.318142      0.077327      0.388270
    3   S      3    2.0175  1.100     -1.497843      1.462301     -0.128380
    4   C      4    1.9255  1.100     -0.064578      0.722615     -0.120036
    5   C      5    1.9255  1.100     -0.090100     -0.674499     -0.211419
    6   S      6    2.0175  1.100      1.519959     -1.790010     -0.359205
    7  Na      7    1.4915  1.100      3.494415     -0.078075      0.724188
    8   S      8    2.0175  1.100      1.543320      1.943613     -0.231886
    9   S      9    2.0175  1.100     -1.320896     -1.592630     -0.005628
 ------------------------------------------------------------------------------
 One-electron integrals computed using PRISM.
 PrsmSu:  requested number of processors reduced to:  30 ShMem   1 Linda.
   1 Symmetry operations used in ECPInt.
 ECPInt:  NShTT=    2016 NPrTT=    9620 LenC2=    1912 LenP2D=    6304.
 LDataN:  DoStor=T MaxTD1= 4 Len=   56
 Number of processors reduced to  38 by ecpmxn.
 NBasis=   143 RedAO= T EigKep=  1.81D-03  NBF=   143
 NBsUse=   143 1.00D-06 EigRej= -1.00D+00 NBFU=   143
 Initial guess from the checkpoint file:  "/home/zz1/proj/gauss/new/chk/Na-COLLEX-1/173.chk"
 B after Tr=    -0.000000    0.000000   -0.000000
         Rot=    0.999940    0.006115    0.003645    0.008310 Ang=   1.25 deg.
 Initial guess <Sx>= 0.0000 <Sy>= 0.0000 <Sz>= 0.5000 <S**2>= 0.7560 S= 0.5030
 ExpMin= 2.80D-02 ExpMax= 9.18D+03 ExpMxC= 1.38D+03 IAcc=3 IRadAn=         5 AccDes= 0.00D+00
 Harris functional with IExCor= 1009 and IRadAn=       5 diagonalized for initial guess.
 HarFok:  IExCor= 1009 AccDes= 0.00D+00 IRadAn=         5 IDoV= 1 UseB2=F ITyADJ=14
 ICtDFT=  3500011 ScaDFX=  1.000000  1.000000  1.000000  1.000000
 FoFCou: FMM=F IPFlag=           0 FMFlag=      100000 FMFlg1=           0
         NFxFlg=           0 DoJE=T BraDBF=F KetDBF=T FulRan=T
         wScrn=  0.000000 ICntrl=       500 IOpCl=  0 I1Cent=   200000004 NGrid=           0
         NMat0=    1 NMatS0=      1 NMatT0=    0 NMatD0=    1 NMtDS0=    0 NMtDT0=    0
 Petite list used in FoFCou.
 Requested convergence on RMS density matrix=1.00D-08 within 128 cycles.
 Requested convergence on MAX density matrix=1.00D-06.
 Requested convergence on             energy=1.00D-06.
 No special actions if energy rises.
 CoulSu:  requested number of processors reduced to:  47 ShMem   1 Linda.
 Inv3:  Mode=1 IEnd=     6723027.
 Iteration    1 A*A^-1 deviation from unit magnitude is 3.11D-15 for    932.
 Iteration    1 A*A^-1 deviation from orthogonality  is 1.55D-15 for   1087    405.
 Iteration    1 A^-1*A deviation from unit magnitude is 3.11D-15 for    932.
 Iteration    1 A^-1*A deviation from orthogonality  is 5.96D-15 for    943    859.
 CoulSu:  requested number of processors reduced to:  47 ShMem   1 Linda.
 CoulSu:  requested number of processors reduced to:  47 ShMem   1 Linda.
 Restarting incremental Fock formation.
 CoulSu:  requested number of processors reduced to:  46 ShMem   1 Linda.
 Error on total polarization charges =  0.01300
 SCF Done:  E(UM062X) =  -1943.72167827     A.U. after   23 cycles
            NFock= 23  Conv=0.98D-08     -V/T= 2.0024
 <Sx>= 0.0000 <Sy>= 0.0000 <Sz>= 0.5000 <S**2>= 0.7580 S= 0.5040
 <L.S>=  0.00000000000    
 Annihilation of the first spin contaminant:
 S**2 before annihilation     0.7580,   after     0.7500

 **********************************************************************

            Population analysis using the SCF density.

 **********************************************************************

 Orbital symmetries:
 Alpha Orbitals:
       Occupied  (A) (A) (A) (A) (A) (A) (A) (A) (A) (A) (A) (A)
                 (A) (A) (A) (A) (A) (A) (A) (A) (A) (A) (A) (A)
                 (A) (A) (A) (A) (A) (A) (A) (A) (A) (A) (A) (A)
                 (A) (A) (A) (A) (A) (A) (A) (A) (A) (A) (A) (A)
                 (A) (A) (A)
       Virtual   (A) (A) (A) (A) (A) (A) (A) (A) (A) (A) (A) (A)
                 (A) (A) (A) (A) (A) (A) (A) (A) (A) (A) (A) (A)
                 (A) (A) (A) (A) (A) (A) (A) (A) (A) (A) (A) (A)
                 (A) (A) (A) (A) (A) (A) (A) (A) (A) (A) (A) (A)
                 (A) (A) (A) (A) (A) (A) (A) (A) (A) (A) (A) (A)
                 (A) (A) (A) (A) (A) (A) (A) (A) (A) (A) (A) (A)
                 (A) (A) (A) (A) (A) (A) (A) (A) (A) (A) (A) (A)
                 (A) (A) (A) (A) (A) (A) (A) (A)
 Beta  Orbitals:
       Occupied  (A) (A) (A) (A) (A) (A) (A) (A) (A) (A) (A) (A)
                 (A) (A) (A) (A) (A) (A) (A) (A) (A) (A) (A) (A)
                 (A) (A) (A) (A) (A) (A) (A) (A) (A) (A) (A) (A)
                 (A) (A) (A) (A) (A) (A) (A) (A) (A) (A) (A) (A)
                 (A) (A)
       Virtual   (A) (A) (A) (A) (A) (A) (A) (A) (A) (A) (A) (A)
                 (A) (A) (A) (A) (A) (A) (A) (A) (A) (A) (A) (A)
                 (A) (A) (A) (A) (A) (A) (A) (A) (A) (A) (A) (A)
                 (A) (A) (A) (A) (A) (A) (A) (A) (A) (A) (A) (A)
                 (A) (A) (A) (A) (A) (A) (A) (A) (A) (A) (A) (A)
                 (A) (A) (A) (A) (A) (A) (A) (A) (A) (A) (A) (A)
                 (A) (A) (A) (A) (A) (A) (A) (A) (A) (A) (A) (A)
                 (A) (A) (A) (A) (A) (A) (A) (A) (A)
 The electronic state is 2-A.
 Alpha  occ. eigenvalues --  -89.95309 -89.93995 -89.88048 -89.85740 -39.11475
 Alpha  occ. eigenvalues --  -19.67527 -10.70057 -10.63410 -10.63310  -8.32422
 Alpha  occ. eigenvalues --   -8.30989  -8.23807  -8.21693  -6.24640  -6.24390
 Alpha  occ. eigenvalues --   -6.24128  -6.23149  -6.22967  -6.22750  -6.16211
 Alpha  occ. eigenvalues --   -6.16104  -6.15483  -6.14134  -6.13785  -6.13434
 Alpha  occ. eigenvalues --   -2.37070  -1.25484  -1.25086  -1.25085  -1.25032
 Alpha  occ. eigenvalues --   -1.02553  -0.92602  -0.80561  -0.73575  -0.71430
 Alpha  occ. eigenvalues --   -0.66061  -0.62745  -0.57684  -0.56469  -0.50800
 Alpha  occ. eigenvalues --   -0.49210  -0.47671  -0.42250  -0.39932  -0.38979
 Alpha  occ. eigenvalues --   -0.33145  -0.31401  -0.29584  -0.28510  -0.26216
 Alpha  occ. eigenvalues --   -0.24803
 Alpha virt. eigenvalues --   -0.03281   0.00045   0.00836   0.02976   0.03212
 Alpha virt. eigenvalues --    0.06951   0.08088   0.09874   0.10850   0.13852
 Alpha virt. eigenvalues --    0.14650   0.19330   0.25208   0.26434   0.30201
 Alpha virt. eigenvalues --    0.30990   0.32420   0.34069   0.35497   0.37433
 Alpha virt. eigenvalues --    0.38207   0.44193   0.46098   0.48221   0.50950
 Alpha virt. eigenvalues --    0.52205   0.52339   0.54602   0.57885   0.59222
 Alpha virt. eigenvalues --    0.59364   0.61857   0.62963   0.63758   0.65684
 Alpha virt. eigenvalues --    0.67611   0.69096   0.70614   0.71938   0.72804
 Alpha virt. eigenvalues --    0.74694   0.75360   0.76326   0.76925   0.77236
 Alpha virt. eigenvalues --    0.78027   0.79656   0.80846   0.81316   0.82391
 Alpha virt. eigenvalues --    0.85561   0.86873   0.87656   0.88790   0.90157
 Alpha virt. eigenvalues --    0.92127   0.98711   0.98846   0.99799   1.01694
 Alpha virt. eigenvalues --    1.03784   1.10514   1.11624   1.13409   1.15617
 Alpha virt. eigenvalues --    1.18063   1.20160   1.23198   1.24760   1.28156
 Alpha virt. eigenvalues --    1.32008   1.48411   1.53720   1.70961   1.74000
 Alpha virt. eigenvalues --    1.81147   1.85338   1.89718   1.96801   2.00925
 Alpha virt. eigenvalues --    2.05434   2.14340   2.20587   2.28749   2.48176
 Alpha virt. eigenvalues --    2.59591   2.62769   2.71557   2.72328   3.24383
 Alpha virt. eigenvalues --    3.30675   3.69572
  Beta  occ. eigenvalues --  -89.95281 -89.93930 -89.87770 -89.85582 -39.11473
  Beta  occ. eigenvalues --  -19.67422 -10.70057 -10.63267 -10.63211  -8.32413
  Beta  occ. eigenvalues --   -8.30967  -8.23713  -8.21639  -6.24642  -6.24396
  Beta  occ. eigenvalues --   -6.24020  -6.23135  -6.22950  -6.22548  -6.16144
  Beta  occ. eigenvalues --   -6.15395  -6.15284  -6.14082  -6.13393  -6.13325
  Beta  occ. eigenvalues --   -2.37067  -1.25253  -1.25091  -1.25083  -1.25032
  Beta  occ. eigenvalues --   -1.02032  -0.92304  -0.79711  -0.72673  -0.70001
  Beta  occ. eigenvalues --   -0.65665  -0.62347  -0.57317  -0.55847  -0.50248
  Beta  occ. eigenvalues --   -0.48769  -0.45854  -0.41573  -0.39335  -0.38157
  Beta  occ. eigenvalues --   -0.32713  -0.29270  -0.27840  -0.26037  -0.25016
  Beta virt. eigenvalues --   -0.11859  -0.02865   0.00090   0.02573   0.03552
  Beta virt. eigenvalues --    0.03912   0.07112   0.07825   0.09718   0.11000
  Beta virt. eigenvalues --    0.14037   0.14616   0.19692   0.25467   0.26626
  Beta virt. eigenvalues --    0.30330   0.30941   0.32333   0.33915   0.35483
  Beta virt. eigenvalues --    0.37520   0.38266   0.44365   0.46404   0.48302
  Beta virt. eigenvalues --    0.51553   0.52566   0.53015   0.55125   0.58276
  Beta virt. eigenvalues --    0.59675   0.60085   0.62379   0.63433   0.64137
  Beta virt. eigenvalues --    0.66343   0.68151   0.69563   0.71051   0.72381
  Beta virt. eigenvalues --    0.73482   0.75698   0.76082   0.76822   0.77528
  Beta virt. eigenvalues --    0.77790   0.79006   0.80055   0.81594   0.82195
  Beta virt. eigenvalues --    0.83567   0.86283   0.87399   0.88252   0.89344
  Beta virt. eigenvalues --    0.91144   0.92619   0.99001   0.99322   1.00034
  Beta virt. eigenvalues --    1.02506   1.04119   1.10779   1.11949   1.13689
  Beta virt. eigenvalues --    1.15896   1.18268   1.20497   1.23420   1.24955
  Beta virt. eigenvalues --    1.28456   1.32188   1.48838   1.55542   1.71430
  Beta virt. eigenvalues --    1.74424   1.82051   1.86400   1.89938   1.97970
  Beta virt. eigenvalues --    2.01466   2.05719   2.15301   2.21500   2.30852
  Beta virt. eigenvalues --    2.48375   2.60426   2.65319   2.71919   2.72554
  Beta virt. eigenvalues --    3.24716   3.30784   3.69659
          Condensed to atoms (all electrons):
               1          2          3          4          5          6
     1  O    7.569528   0.714112  -0.088181   0.005805   0.002743  -0.000028
     2  C    0.714112   4.929111   0.210551  -0.058514  -0.091451   0.004188
     3  S   -0.088181   0.210551  15.636451   0.247215  -0.048854   0.001074
     4  C    0.005805  -0.058514   0.247215   5.400088   0.419898  -0.035033
     5  C    0.002743  -0.091451  -0.048854   0.419898   5.333894   0.255639
     6  S   -0.000028   0.004188   0.001074  -0.035033   0.255639  16.085921
     7  Na   0.000045  -0.001872   0.002767  -0.011362  -0.012242   0.126906
     8  S   -0.000010   0.002178  -0.043188   0.292727  -0.026506  -0.007573
     9  S   -0.081844   0.258366  -0.110061  -0.080489   0.317601  -0.064815
               7          8          9
     1  O    0.000045  -0.000010  -0.081844
     2  C   -0.001872   0.002178   0.258366
     3  S    0.002767  -0.043188  -0.110061
     4  C   -0.011362   0.292727  -0.080489
     5  C   -0.012242  -0.026506   0.317601
     6  S    0.126906  -0.007573  -0.064815
     7  Na  10.077252   0.104461   0.002475
     8  S    0.104461  15.947980   0.000547
     9  S    0.002475   0.000547  15.605222
          Atomic-Atomic Spin Densities.
               1          2          3          4          5          6
     1  O    0.065158  -0.013450  -0.001995   0.000218   0.000572  -0.000000
     2  C   -0.013450  -0.004944   0.022658  -0.008699  -0.000900   0.000157
     3  S   -0.001995   0.022658   0.046283  -0.027529  -0.013230   0.000042
     4  C    0.000218  -0.008699  -0.027529   0.226778   0.082902  -0.004676
     5  C    0.000572  -0.000900  -0.013230   0.082902   0.128647  -0.043905
     6  S   -0.000000   0.000157   0.000042  -0.004676  -0.043905   0.227219
     7  Na  -0.000006   0.000151   0.000190  -0.003347  -0.002305   0.003272
     8  S   -0.000001   0.000108   0.006279  -0.066414  -0.003649   0.002117
     9  S   -0.002419   0.009210   0.004029  -0.011402  -0.044426   0.009218
               7          8          9
     1  O   -0.000006  -0.000001  -0.002419
     2  C    0.000151   0.000108   0.009210
     3  S    0.000190   0.006279   0.004029
     4  C   -0.003347  -0.066414  -0.011402
     5  C   -0.002305  -0.003649  -0.044426
     6  S    0.003272   0.002117   0.009218
     7  Na   0.000595   0.002466   0.000774
     8  S    0.002466   0.395206   0.000135
     9  S    0.000774   0.000135   0.122762
 Mulliken charges and spin densities:
               1          2
     1  O   -0.122171   0.048076
     2  C    0.033330   0.004291
     3  S    0.192227   0.036727
     4  C   -0.180335   0.187832
     5  C   -0.150722   0.103707
     6  S   -0.366279   0.193444
     7  Na   0.711568   0.001791
     8  S   -0.270617   0.336249
     9  S    0.152998   0.087883
 Sum of Mulliken charges =  -0.00000   1.00000
 Mulliken charges and spin densities with hydrogens summed into heavy atoms:
               1          2
     1  O   -0.122171   0.048076
     2  C    0.033330   0.004291
     3  S    0.192227   0.036727
     4  C   -0.180335   0.187832
     5  C   -0.150722   0.103707
     6  S   -0.366279   0.193444
     7  Na   0.711568   0.001791
     8  S   -0.270617   0.336249
     9  S    0.152998   0.087883
 Electronic spatial extent (au):  <R**2>=           2316.9737
 Charge=             -0.0000 electrons
 Dipole moment (field-independent basis, Debye):
    X=              7.5389    Y=              0.5383    Z=              4.3444  Tot=              8.7177
 Quadrupole moment (field-independent basis, Debye-Ang):
   XX=            -44.2029   YY=            -92.2998   ZZ=            -77.7805
   XY=             -0.7500   XZ=             14.2534   YZ=             -1.1813
 Traceless Quadrupole moment (field-independent basis, Debye-Ang):
   XX=             27.2248   YY=            -20.8720   ZZ=             -6.3528
   XY=             -0.7500   XZ=             14.2534   YZ=             -1.1813
 Octapole moment (field-independent basis, Debye-Ang**2):
  XXX=            238.6989  YYY=             -0.4580  ZZZ=             19.3601  XYY=            -11.9522
  XXY=             -0.7204  XXZ=             46.0601  XZZ=             15.0045  YZZ=              0.6448
  YYZ=              6.7400  XYZ=             -1.7548
 Hexadecapole moment (field-independent basis, Debye-Ang**3):
 XXXX=          -1072.4730 YYYY=          -1116.9018 ZZZZ=           -131.6013 XXXY=            -20.0979
 XXXZ=            211.3244 YYYX=              2.0713 YYYZ=             -6.5858 ZZZX=             48.2057
 ZZZY=             -3.4125 XXYY=           -447.9000 XXZZ=           -258.5796 YYZZ=           -205.2411
 XXYZ=             -6.1657 YYXZ=             17.1631 ZZXY=             -0.8818
 N-N= 7.746210085436D+02 E-N=-6.168792216724D+03  KE= 1.939026822024D+03
                          Isotropic Fermi Contact Couplings
        Atom                 a.u.       MegaHertz       Gauss      10(-4) cm-1
     1  O(17)              0.01367      -8.28820      -2.95744      -2.76465
     2  C(13)              0.00550       6.18740       2.20782       2.06390
     3  S(33)              0.00341       1.17255       0.41839       0.39112
     4  C(13)              0.03352      37.68507      13.44697      12.57039
     5  C(13)              0.01401      15.74444       5.61801       5.25178
     6  S(33)              0.03013      10.34841       3.69257       3.45186
     7  Na(23)             0.00428       5.05983       1.80547       1.68778
     8  S(33)              0.04786      16.43851       5.86567       5.48330
     9  S(33)              0.00584       2.00714       0.71620       0.66951
 --------------------------------------------------------
       Center         ----  Spin Dipole Couplings  ----
                      3XX-RR        3YY-RR        3ZZ-RR
 --------------------------------------------------------
     1   Atom       -0.098083     -0.101982      0.200065
     2   Atom        0.013443     -0.005888     -0.007555
     3   Atom       -0.098380     -0.051585      0.149964
     4   Atom       -0.141217     -0.131289      0.272506
     5   Atom       -0.083013     -0.071927      0.154940
     6   Atom       -0.359065     -0.393801      0.752866
     7   Atom        0.004233     -0.000654     -0.003579
     8   Atom       -0.702761     -0.701138      1.403899
     9   Atom       -0.125063     -0.164106      0.289169
 --------------------------------------------------------
                        XY            XZ            YZ
 --------------------------------------------------------
     1   Atom        0.003977      0.024979      0.038729
     2   Atom        0.005310      0.008670      0.003162
     3   Atom        0.039976      0.070663      0.102249
     4   Atom        0.002749      0.013486     -0.006451
     5   Atom       -0.006229      0.046994     -0.033705
     6   Atom        0.005029      0.266696     -0.118107
     7   Atom       -0.000409      0.000766     -0.000267
     8   Atom       -0.038041      0.156302      0.020304
     9   Atom       -0.041513      0.167500     -0.058686
 --------------------------------------------------------


 ---------------------------------------------------------------------------------
              Anisotropic Spin Dipole Couplings in Principal Axis System
 ---------------------------------------------------------------------------------

       Atom             a.u.   MegaHertz   Gauss  10(-4) cm-1        Axes

              Baa    -0.1070     7.740     2.762     2.582 -0.1189  0.9863 -0.1147
     1 O(17)  Bbb    -0.1001     7.242     2.584     2.416  0.9895  0.1081 -0.0963
              Bcc     0.2070   -14.982    -5.346    -4.997  0.0826  0.1250  0.9887
 
              Baa    -0.0110    -1.481    -0.528    -0.494 -0.2616 -0.2946  0.9191
     2 C(13)  Bbb    -0.0071    -0.948    -0.338    -0.316 -0.3252  0.9235  0.2035
              Bcc     0.0181     2.429     0.867     0.810  0.9087  0.2457  0.3374
 
              Baa    -0.1223    -5.014    -1.789    -1.673  0.9192 -0.3822 -0.0950
     3 S(33)  Bbb    -0.0913    -3.743    -1.336    -1.249  0.3039  0.8419 -0.4458
              Bcc     0.2136     8.758     3.125     2.921  0.2504  0.3809  0.8901
 
              Baa    -0.1424   -19.115    -6.821    -6.376  0.9654 -0.2583 -0.0354
     4 C(13)  Bbb    -0.1306   -17.525    -6.253    -5.846  0.2587  0.9659  0.0068
              Bcc     0.2730    36.640    13.074    12.222  0.0324 -0.0157  0.9994
 
              Baa    -0.0920   -12.340    -4.403    -4.116  0.9820 -0.0118 -0.1885
     5 C(13)  Bbb    -0.0768   -10.307    -3.678    -3.438  0.0381  0.9899  0.1363
              Bcc     0.1688    22.647     8.081     7.554  0.1850 -0.1410  0.9726
 
              Baa    -0.4440   -18.203    -6.495    -6.072  0.7552 -0.6143 -0.2289
     6 S(33)  Bbb    -0.3802   -15.589    -5.562    -5.200  0.6180  0.7836 -0.0638
              Bcc     0.8242    33.792    12.058    11.272  0.2185 -0.0933  0.9714
 
              Baa    -0.0037    -0.518    -0.185    -0.173 -0.0924  0.0754  0.9929
     7 Na(23) Bbb    -0.0007    -0.095    -0.034    -0.032  0.0932  0.9934 -0.0668
              Bcc     0.0043     0.614     0.219     0.205  0.9914 -0.0864  0.0988
 
              Baa    -0.7478   -30.657   -10.939   -10.226  0.7600  0.6470 -0.0613
     8 S(33)  Bbb    -0.6678   -27.380    -9.770    -9.133 -0.6457  0.7625  0.0412
              Bcc     1.4156    58.037    20.709    19.359  0.0734  0.0082  0.9973
 
              Baa    -0.1990    -8.158    -2.911    -2.721  0.7776  0.5977 -0.1950
     9 S(33)  Bbb    -0.1586    -6.504    -2.321    -2.169 -0.5320  0.7908  0.3026
              Bcc     0.3576    14.662     5.232     4.891  0.3351 -0.1316  0.9330
 

 ---------------------------------------------------------------------------------

 PrsmSu:  requested number of processors reduced to:  30 ShMem   1 Linda.
   1 Symmetry operations used in ECPInt.
 ECPInt:  NShTT=    2016 NPrTT=    9620 LenC2=    1912 LenP2D=    6304.
 LDataN:  DoStor=T MaxTD1= 5 Len=  102
 Number of processors reduced to  39 by ecpmxn.
 D1PCM: PCM CHGder 1st derivatives, ID1Alg=3 FixD1E=F DoIter=F DoCFld=F I1PDM=0.
 CoulSu:  requested number of processors reduced to:  48 ShMem   1 Linda.
 CoulSu:  requested number of processors reduced to:  47 ShMem   1 Linda.
 CoulSu:  requested number of processors reduced to:  47 ShMem   1 Linda.
 CoulSu:  requested number of processors reduced to:  48 ShMem   1 Linda.
 CoulSu:  requested number of processors reduced to:  29 ShMem   1 Linda.
 CoulSu:  requested number of processors reduced to:  30 ShMem   1 Linda.
 CoulSu:  requested number of processors reduced to:  48 ShMem   1 Linda.
 CoulSu:  requested number of processors reduced to:  48 ShMem   1 Linda.
 Calling FoFJK, ICntrl=      2127 FMM=F ISym2X=0 I1Cent= 0 IOpClX= 1 NMat=1 NMatS=1 NMatT=0.
 ***** Axes restored to original set *****
 -------------------------------------------------------------------
 Center     Atomic                   Forces (Hartrees/Bohr)
 Number     Number              X              Y              Z
 -------------------------------------------------------------------
      1        8           0.065037941    0.010921539   -0.128061154
      2        6          -0.063824817   -0.048952101    0.031746493
      3       16           0.067653713    0.028312819    0.002099890
      4        6          -0.056580608    0.002036700    0.132978352
      5        6          -0.090046765    0.013750402    0.168719990
      6       16           0.056235965    0.011553402   -0.018794834
      7       11           0.003784079   -0.002290687   -0.002057793
      8       16          -0.010397913   -0.021990620   -0.082127215
      9       16           0.028138406    0.006658545   -0.104503729
 -------------------------------------------------------------------
 Cartesian Forces:  Max     0.168719990 RMS     0.064986920

 GradGradGradGradGradGradGradGradGradGradGradGradGradGradGradGradGradGrad
 Berny optimization.
 Using GEDIIS/GDIIS optimizer.
 FormGI is forming the generalized inverse of G from B-inverse, IUseBI=4.
 Internal  Forces:  Max     0.141085383 RMS     0.045546780
 Search for a local minimum.
 Step number   2 out of a maximum of   10
 All quantities printed in internal units (Hartrees-Bohrs-Radians)
 Mixed Optimization -- RFO/linear search
 Update second derivatives using D2CorX and points    1    2
 DE= -9.65D-02 DEPred=-9.80D-02 R= 9.85D-01
 TightC=F SS=  1.41D+00  RLast= 3.25D-01 DXNew= 5.0454D-01 9.7558D-01
 Trust test= 9.85D-01 RLast= 3.25D-01 DXMaxT set to 5.05D-01
 ITU=  1  0
 Use linear search instead of GDIIS.
 Linear search step of   0.600 exceeds DXMaxT=   0.505 but not scaled.
 Quartic linear search produced a step of  2.00000.
 Iteration  1 RMS(Cart)=  0.15998456 RMS(Int)=  0.01398382
 Iteration  2 RMS(Cart)=  0.01311431 RMS(Int)=  0.00368558
 Iteration  3 RMS(Cart)=  0.00006589 RMS(Int)=  0.00368517
 Iteration  4 RMS(Cart)=  0.00000025 RMS(Int)=  0.00368517
 Variable       Old X    -DE/DX   Delta X   Delta X   Delta X     New X
                                 (Linear)    (Quad)   (Total)
    R1        2.12940   0.14109   0.13195   0.00000   0.13195   2.26135
    R2        3.19468   0.06176   0.16435   0.00000   0.16428   3.35896
    R3        3.75024  -0.00291   0.03588   0.00000   0.03723   3.78747
    R4        3.04794   0.09055   0.19023   0.00000   0.18902   3.23696
    R5        2.64624  -0.01261  -0.02460   0.00000  -0.02549   2.62075
    R6        3.82112  -0.08554  -0.26302   0.00000  -0.26302   3.55810
    R7        3.71200  -0.06363  -0.16998   0.00000  -0.16998   3.54202
    R8        2.92766   0.13021   0.21509   0.00000   0.21555   3.14321
    R9        5.34593  -0.00300  -0.01513   0.00000  -0.01513   5.33080
    A1        2.17679   0.01754   0.10475   0.00000   0.09646   2.27324
    A2        2.00592   0.03240   0.14373   0.00000   0.13525   2.14117
    A3        1.96589  -0.03034  -0.13861   0.00000  -0.14740   1.81849
    A4        1.62472   0.03803   0.14225   0.00000   0.14008   1.76479
    A5        2.02753  -0.00695  -0.01537   0.00000  -0.01694   2.01059
    A6        2.01463   0.01160   0.04206   0.00000   0.04203   2.05666
    A7        2.23108  -0.00339  -0.01990   0.00000  -0.01943   2.21164
    A8        2.16103  -0.00167  -0.02428   0.00000  -0.02401   2.13702
    A9        2.21065  -0.03935  -0.10088   0.00000  -0.10207   2.10858
   A10        1.90141   0.04132   0.12673   0.00000   0.12738   2.02879
   A11        1.77175  -0.01752  -0.05263   0.00000  -0.05263   1.71912
   A12        1.49762   0.04868   0.17051   0.00000   0.17295   1.67058
    D1       -2.96738  -0.02287  -0.10122   0.00000  -0.10284  -3.07023
    D2       -0.39072   0.02309   0.13131   0.00000   0.12506  -0.26565
    D3        2.91961   0.01769   0.09019   0.00000   0.09119   3.01079
    D4        0.28466  -0.02093  -0.11698   0.00000  -0.11091   0.17375
    D5        0.38667  -0.01237  -0.06908   0.00000  -0.07805   0.30862
    D6       -2.89400  -0.00391  -0.02746   0.00000  -0.03169  -2.92570
    D7        3.05671   0.00420   0.01860   0.00000   0.02085   3.07756
    D8       -0.25422   0.01051   0.04363   0.00000   0.04266  -0.21156
    D9        0.07431  -0.00682  -0.03572   0.00000  -0.03602   0.03829
   D10        3.04656  -0.00050  -0.01069   0.00000  -0.01421   3.03235
   D11        0.39128  -0.00575  -0.02926   0.00000  -0.02982   0.36146
   D12       -2.60689  -0.00481  -0.03259   0.00000  -0.03203  -2.63891
   D13       -0.02936   0.00627   0.03414   0.00000   0.03998   0.01062
   D14        2.96365   0.00952   0.04723   0.00000   0.04981   3.01346
         Item               Value     Threshold  Converged?
 Maximum Force            0.141085     0.000450     NO 
 RMS     Force            0.045547     0.000300     NO 
 Maximum Displacement     0.390096     0.001800     NO 
 RMS     Displacement     0.161070     0.001200     NO 
 Predicted change in Energy=-7.670502D-02
 GradGradGradGradGradGradGradGradGradGradGradGradGradGradGradGradGradGrad

                          Input orientation:                          
 ---------------------------------------------------------------------
 Center     Atomic      Atomic             Coordinates (Angstroms)
 Number     Number       Type             X           Y           Z
 ---------------------------------------------------------------------
      1          8           0       14.700847    4.439128   -2.109922
      2          6           0       14.124750    4.497722   -1.062705
      3         16           0       14.754741    4.729097    0.583208
      4          6           0       13.322121    4.576203    1.509674
      5          6           0       12.259441    3.968636    0.857829
      6         16           0       10.630205    3.607481    1.711274
      7         11           0       10.856319    5.447770    3.837280
      8         16           0       13.385786    5.093176    3.319059
      9         16           0       12.301531    3.712967   -0.785178
 ---------------------------------------------------------------------
                    Distance matrix (angstroms):
                    1          2          3          4          5
     1  O    0.000000
     2  C    1.196656   0.000000
     3  S    2.709232   1.777485   0.000000
     4  C    3.875713   2.695831   1.712926   0.000000
     5  C    3.871611   2.729059   2.623021   1.386841   0.000000
     6  S    5.644759   4.549652   4.420673   2.868009   1.874356
     7  Na   7.153109   5.966161   5.128661   3.501079   3.610223
     8  S    5.624145   4.483357   3.080823   1.882867   2.931023
     9  S    2.835308   2.004242   2.987180   2.655772   1.663314
                    6          7          8          9
     6  S    0.000000
     7  Na   2.820938   0.000000
     8  S    3.519302   2.606241   0.000000
     9  S    3.006116   5.144444   4.463782   0.000000
 Stoichiometry    C3NaOS4(2)
 Framework group  C1[X(C3NaOS4)]
 Deg. of freedom    21
 Full point group                 C1      NOp   1
 Largest Abelian subgroup         C1      NOp   1
 Largest concise Abelian subgroup C1      NOp   1
                         Standard orientation:                         
 ---------------------------------------------------------------------
 Center     Atomic      Atomic             Coordinates (Angstroms)
 Number     Number       Type             X           Y           Z
 ---------------------------------------------------------------------
      1          8           0       -3.706317    0.092045    0.377194
      2          6           0       -2.512893    0.122991    0.294941
      3         16           0       -1.426789    1.457106   -0.152237
      4          6           0        0.091347    0.663811   -0.144324
      5          6           0        0.034417   -0.720648   -0.202296
      6         16           0        1.572525   -1.786770   -0.306316
      7         11           0        3.439811    0.076766    0.692768
      8         16           0        1.641244    1.730651   -0.214045
      9         16           0       -1.403518   -1.524594    0.027102
 ---------------------------------------------------------------------
 Rotational constants (GHZ):           1.3573888           0.5735480           0.4166926
 Standard basis: def2SVP (5D, 7F)
 There are   152 symmetry adapted cartesian basis functions of A   symmetry.
 There are   143 symmetry adapted basis functions of A   symmetry.
   143 basis functions,   282 primitive gaussians,   152 cartesian basis functions
    51 alpha electrons       50 beta electrons
       nuclear repulsion energy       770.2088021043 Hartrees.
 NAtoms=    9 NActive=    9 NUniq=    9 SFac= 1.00D+00 NAtFMM=   60 NAOKFM=F Big=F
 Integral buffers will be    131072 words long.
 Raffenetti 2 integral format.
 Two-electron integral symmetry is turned on.
 ------------------------------------------------------------------------------
 Polarizable Continuum Model (PCM)
 =================================
 Model                : PCM.
 Atomic radii         : UFF (Universal Force Field).
 Polarization charges : Total charges.
 Charge compensation  : None.
 Solution method      : On-the-fly selection.
 Cavity type          : Scaled VdW (van der Waals Surface) (Alpha=1.100).
 Cavity algorithm     : GePol (No added spheres)
                        Default sphere list used, NSphG=    9.
                        Lebedev-Laikov grids with approx.  5.0 points / Ang**2.
                        Smoothing algorithm: York/Karplus (Gamma=1.0000).
                        Polarization charges: spherical gaussians, with
                                              point-specific exponents (IZeta= 3).
                        Self-potential: point-specific (ISelfS= 7).
                        Self-field    : sphere-specific E.n sum rule (ISelfD= 2).
 1st derivatives      : Analytical E(r).r(x)/FMM algorithm (CHGder, D1EAlg=3).
                        Cavity 1st derivative terms included.
 Solvent              : Water, Eps=  78.355300 Eps(inf)=   1.777849
 ------------------------------------------------------------------------------
 Spheres list:
 ISph  on   Nord     Re0    Alpha      Xe            Ye            Ze
    1   O      1    1.7500  1.100     -3.706317      0.092045      0.377194
    2   C      2    1.9255  1.100     -2.512893      0.122991      0.294941
    3   S      3    2.0175  1.100     -1.426789      1.457106     -0.152237
    4   C      4    1.9255  1.100      0.091347      0.663811     -0.144324
    5   C      5    1.9255  1.100      0.034417     -0.720648     -0.202296
    6   S      6    2.0175  1.100      1.572525     -1.786770     -0.306316
    7  Na      7    1.4915  1.100      3.439811      0.076766      0.692768
    8   S      8    2.0175  1.100      1.641244      1.730651     -0.214045
    9   S      9    2.0175  1.100     -1.403518     -1.524594      0.027102
 ------------------------------------------------------------------------------
 One-electron integrals computed using PRISM.
 PrsmSu:  requested number of processors reduced to:  30 ShMem   1 Linda.
   1 Symmetry operations used in ECPInt.
 ECPInt:  NShTT=    2016 NPrTT=    9620 LenC2=    1908 LenP2D=    6275.
 LDataN:  DoStor=T MaxTD1= 4 Len=   56
 Number of processors reduced to  38 by ecpmxn.
 NBasis=   143 RedAO= T EigKep=  1.98D-03  NBF=   143
 NBsUse=   143 1.00D-06 EigRej= -1.00D+00 NBFU=   143
 Initial guess from the checkpoint file:  "/home/zz1/proj/gauss/new/chk/Na-COLLEX-1/173.chk"
 B after Tr=     0.000000   -0.000000    0.000000
         Rot=    0.999856    0.013203    0.006521    0.008464 Ang=   1.95 deg.
 Initial guess <Sx>= 0.0000 <Sy>= 0.0000 <Sz>= 0.5000 <S**2>= 0.7581 S= 0.5040
 ExpMin= 2.80D-02 ExpMax= 9.18D+03 ExpMxC= 1.38D+03 IAcc=3 IRadAn=         5 AccDes= 0.00D+00
 Harris functional with IExCor= 1009 and IRadAn=       5 diagonalized for initial guess.
 HarFok:  IExCor= 1009 AccDes= 0.00D+00 IRadAn=         5 IDoV= 1 UseB2=F ITyADJ=14
 ICtDFT=  3500011 ScaDFX=  1.000000  1.000000  1.000000  1.000000
 FoFCou: FMM=F IPFlag=           0 FMFlag=      100000 FMFlg1=           0
         NFxFlg=           0 DoJE=T BraDBF=F KetDBF=T FulRan=T
         wScrn=  0.000000 ICntrl=       500 IOpCl=  0 I1Cent=   200000004 NGrid=           0
         NMat0=    1 NMatS0=      1 NMatT0=    0 NMatD0=    1 NMtDS0=    0 NMtDT0=    0
 Petite list used in FoFCou.
 Requested convergence on RMS density matrix=1.00D-08 within 128 cycles.
[...]
      4          6           0       13.294772    4.706275    1.532437
      5          6           0       12.164811    4.173804    0.865874
      6         16           0       10.651377    3.879490    1.536708
      7         11           0       10.844128    5.040977    4.106320
      8         16           0       13.392764    5.159695    3.158246
      9         16           0       12.388035    3.788245   -0.852744
 ---------------------------------------------------------------------
                    Distance matrix (angstroms):
                    1          2          3          4          5
     1  O    0.000000
     2  C    1.201459   0.000000
     3  S    2.643389   1.782659   0.000000
     4  C    3.868627   2.699080   1.776726   0.000000
     5  C    3.867919   2.693413   2.704330   1.415854   0.000000
     6  S    5.428521   4.301442   4.340409   2.769680   1.681404
     7  Na   7.310458   6.110201   5.297775   3.569671   3.605091
     8  S    5.436136   4.317329   2.969617   1.690694   2.781154
     9  S    2.657810   1.783193   2.951793   2.711833   1.775424
                    6          7          8          9
     6  S    0.000000
     7  Na   2.826501   0.000000
     8  S    3.432712   2.721853   0.000000
     9  S    2.955297   5.342779   4.356419   0.000000
 Stoichiometry    C3NaOS4(2)
 Framework group  C1[X(C3NaOS4)]
 Deg. of freedom    21
 Full point group                 C1      NOp   1
 Largest Abelian subgroup         C1      NOp   1
 Largest concise Abelian subgroup C1      NOp   1
                         Standard orientation:                         
 ---------------------------------------------------------------------
 Center     Atomic      Atomic             Coordinates (Angstroms)
 Number     Number       Type             X           Y           Z
 ---------------------------------------------------------------------
      1          8           0       -3.648252    0.050481    0.063141
      2          6           0       -2.447297    0.021647    0.043632
      3         16           0       -1.427479    1.483590    0.019845
      4          6           0        0.164541    0.697099   -0.040627
      5          6           0        0.140953   -0.718557   -0.043183
      6         16           0        1.472780   -1.743496   -0.096609
      7         11           0        3.660748    0.020127    0.205946
      8         16           0        1.532526    1.688691   -0.102349
      9         16           0       -1.467290   -1.467934    0.021021
 ---------------------------------------------------------------------
 Rotational constants (GHZ):           1.4799918           0.5785461           0.4171581

 **********************************************************************

            Population analysis using the SCF density.

 **********************************************************************

 Orbital symmetries:
 Alpha Orbitals:
       Occupied  (A) (A) (A) (A) (A) (A) (A) (A) (A) (A) (A) (A)
                 (A) (A) (A) (A) (A) (A) (A) (A) (A) (A) (A) (A)
                 (A) (A) (A) (A) (A) (A) (A) (A) (A) (A) (A) (A)
                 (A) (A) (A) (A) (A) (A) (A) (A) (A) (A) (A) (A)
                 (A) (A) (A)
       Virtual   (A) (A) (A) (A) (A) (A) (A) (A) (A) (A) (A) (A)
                 (A) (A) (A) (A) (A) (A) (A) (A) (A) (A) (A) (A)
                 (A) (A) (A) (A) (A) (A) (A) (A) (A) (A) (A) (A)
                 (A) (A) (A) (A) (A) (A) (A) (A) (A) (A) (A) (A)
                 (A) (A) (A) (A) (A) (A) (A) (A) (A) (A) (A) (A)
                 (A) (A) (A) (A) (A) (A) (A) (A) (A) (A) (A) (A)
                 (A) (A) (A) (A) (A) (A) (A) (A) (A) (A) (A) (A)
                 (A) (A) (A) (A) (A) (A) (A) (A)
 Beta  Orbitals:
       Occupied  (A) (A) (A) (A) (A) (A) (A) (A) (A) (A) (A) (A)
                 (A) (A) (A) (A) (A) (A) (A) (A) (A) (A) (A) (A)
                 (A) (A) (A) (A) (A) (A) (A) (A) (A) (A) (A) (A)
                 (A) (A) (A) (A) (A) (A) (A) (A) (A) (A) (A) (A)
                 (A) (A)
       Virtual   (A) (A) (A) (A) (A) (A) (A) (A) (A) (A) (A) (A)
                 (A) (A) (A) (A) (A) (A) (A) (A) (A) (A) (A) (A)
                 (A) (A) (A) (A) (A) (A) (A) (A) (A) (A) (A) (A)
                 (A) (A) (A) (A) (A) (A) (A) (A) (A) (A) (A) (A)
                 (A) (A) (A) (A) (A) (A) (A) (A) (A) (A) (A) (A)
                 (A) (A) (A) (A) (A) (A) (A) (A) (A) (A) (A) (A)
                 (A) (A) (A) (A) (A) (A) (A) (A) (A) (A) (A) (A)
                 (A) (A) (A) (A) (A) (A) (A) (A) (A)
 The electronic state is 2-A.
 Alpha  occ. eigenvalues --  -89.93641 -89.93589 -89.87424 -89.87380 -39.11542
 Alpha  occ. eigenvalues --  -19.65394 -10.69903 -10.63216 -10.63116  -8.30335
 Alpha  occ. eigenvalues --   -8.30285  -8.23763  -8.23712  -6.22573  -6.22522
 Alpha  occ. eigenvalues --   -6.22319  -6.22267  -6.22004  -6.21960  -6.16153
 Alpha  occ. eigenvalues --   -6.16080  -6.16079  -6.16035  -6.15493  -6.15448
 Alpha  occ. eigenvalues --   -2.37253  -1.25296  -1.25258  -1.25248  -1.18947
 Alpha  occ. eigenvalues --   -0.98344  -0.88034  -0.86249  -0.79093  -0.72111
 Alpha  occ. eigenvalues --   -0.63658  -0.60200  -0.54511  -0.52548  -0.48903
 Alpha  occ. eigenvalues --   -0.48224  -0.46081  -0.45103  -0.39802  -0.37435
 Alpha  occ. eigenvalues --   -0.35217  -0.33475  -0.30677  -0.30563  -0.28187
 Alpha  occ. eigenvalues --   -0.23518
 Alpha virt. eigenvalues --    0.00446   0.01268   0.01980   0.02415   0.07838
 Alpha virt. eigenvalues --    0.08463   0.09396   0.10989   0.12039   0.13294
 Alpha virt. eigenvalues --    0.15864   0.16514   0.23889   0.25279   0.31137
 Alpha virt. eigenvalues --    0.31817   0.33471   0.34145   0.34863   0.37469
 Alpha virt. eigenvalues --    0.38791   0.45306   0.46546   0.50119   0.51685
 Alpha virt. eigenvalues --    0.52826   0.53683   0.56364   0.58511   0.58776
 Alpha virt. eigenvalues --    0.60429   0.61081   0.65166   0.65775   0.67671
 Alpha virt. eigenvalues --    0.67745   0.69221   0.69361   0.70958   0.72651
 Alpha virt. eigenvalues --    0.72786   0.73216   0.76612   0.76723   0.77918
 Alpha virt. eigenvalues --    0.78404   0.80641   0.81214   0.82872   0.83212
 Alpha virt. eigenvalues --    0.83475   0.85033   0.85807   0.88930   0.89883
 Alpha virt. eigenvalues --    0.90611   0.96791   0.99068   1.01359   1.02778
 Alpha virt. eigenvalues --    1.10777   1.12893   1.13909   1.16034   1.17936
 Alpha virt. eigenvalues --    1.19483   1.21549   1.23667   1.24684   1.27835
 Alpha virt. eigenvalues --    1.32293   1.53203   1.54239   1.68108   1.74686
 Alpha virt. eigenvalues --    1.74812   1.94018   1.95109   1.97955   2.01815
 Alpha virt. eigenvalues --    2.03679   2.04873   2.22910   2.25753   2.36680
 Alpha virt. eigenvalues --    2.53876   2.61749   2.72061   2.73244   3.16286
 Alpha virt. eigenvalues --    3.23621   3.62056
  Beta  occ. eigenvalues --  -89.93648 -89.93593 -89.87141 -89.87111 -39.11541
  Beta  occ. eigenvalues --  -19.65305 -10.69906 -10.63109 -10.63024  -8.30339
  Beta  occ. eigenvalues --   -8.30288  -8.23671  -8.23624  -6.22587  -6.22536
  Beta  occ. eigenvalues --   -6.22333  -6.22282  -6.21998  -6.21945  -6.16006
  Beta  occ. eigenvalues --   -6.15966  -6.15401  -6.15361  -6.15332  -6.15293
  Beta  occ. eigenvalues --   -2.37254  -1.25298  -1.25254  -1.25245  -1.18751
  Beta  occ. eigenvalues --   -0.97867  -0.87744  -0.85680  -0.78309  -0.70703
  Beta  occ. eigenvalues --   -0.63438  -0.59676  -0.54277  -0.52011  -0.48331
  Beta  occ. eigenvalues --   -0.47661  -0.44344  -0.44100  -0.39370  -0.36614
  Beta  occ. eigenvalues --   -0.35083  -0.31611  -0.29893  -0.27744  -0.27451
  Beta virt. eigenvalues --   -0.09644   0.00152   0.01893   0.02609   0.04480
  Beta virt. eigenvalues --    0.07072   0.07719   0.09274   0.11143   0.12208
  Beta virt. eigenvalues --    0.13775   0.15988   0.16461   0.24458   0.25317
  Beta virt. eigenvalues --    0.31224   0.31634   0.33527   0.33896   0.35011
  Beta virt. eigenvalues --    0.36480   0.38897   0.45409   0.46725   0.50424
  Beta virt. eigenvalues --    0.51925   0.53108   0.54577   0.56806   0.58683
  Beta virt. eigenvalues --    0.59467   0.60638   0.61428   0.65313   0.66377
  Beta virt. eigenvalues --    0.67946   0.68611   0.69892   0.70126   0.71262
  Beta virt. eigenvalues --    0.73037   0.73587   0.73778   0.77210   0.77544
  Beta virt. eigenvalues --    0.79051   0.79652   0.81341   0.81854   0.82983
  Beta virt. eigenvalues --    0.84023   0.84722   0.85909   0.86564   0.89270
  Beta virt. eigenvalues --    0.90545   0.91890   0.97009   0.99505   1.01500
  Beta virt. eigenvalues --    1.03723   1.11097   1.13252   1.14068   1.16305
  Beta virt. eigenvalues --    1.17966   1.19777   1.21637   1.24093   1.24963
  Beta virt. eigenvalues --    1.28088   1.32400   1.54356   1.55353   1.68641
  Beta virt. eigenvalues --    1.74799   1.75687   1.94665   1.96157   1.98504
  Beta virt. eigenvalues --    2.02703   2.03815   2.05465   2.23758   2.27756
  Beta virt. eigenvalues --    2.36835   2.54936   2.64201   2.72378   2.73424
  Beta virt. eigenvalues --    3.16551   3.23709   3.62142
          Condensed to atoms (all electrons):
               1          2          3          4          5          6
     1  O    7.712891   0.676795  -0.072638   0.002110   0.001975  -0.000008
     2  C    0.676795   4.815555   0.239934  -0.030881  -0.031235   0.002604
     3  S   -0.072638   0.239934  15.755144   0.235877  -0.052594   0.001908
     4  C    0.002110  -0.030881   0.235877   5.371015   0.361970  -0.065346
     5  C    0.001975  -0.031235  -0.052594   0.361970   5.368946   0.334055
     6  S   -0.000008   0.002604   0.001908  -0.065346   0.334055  15.928245
     7  Na  -0.000003  -0.000661   0.002709  -0.021381  -0.017840   0.105039
     8  S   -0.000007   0.002446  -0.057956   0.329278  -0.062776  -0.009804
     9  S   -0.069827   0.236154  -0.128500  -0.054831   0.235957  -0.060502
               7          8          9
     1  O   -0.000003  -0.000007  -0.069827
     2  C   -0.000661   0.002446   0.236154
     3  S    0.002709  -0.057956  -0.128500
     4  C   -0.021381   0.329278  -0.054831
     5  C   -0.017840  -0.062776   0.235957
     6  S    0.105039  -0.009804  -0.060502
     7  Na  10.057289   0.107722   0.002882
     8  S    0.107722  15.944940   0.001813
     9  S    0.002882   0.001813  15.757105
          Atomic-Atomic Spin Densities.
               1          2          3          4          5          6
     1  O    0.054601  -0.012115  -0.000933   0.000120   0.000114  -0.000000
     2  C   -0.012115   0.004003   0.011022  -0.003045  -0.002923   0.000100
     3  S   -0.000933   0.011022  -0.003819  -0.011646  -0.005772   0.000172
     4  C    0.000120  -0.003045  -0.011646   0.170066   0.095846  -0.010254
     5  C    0.000114  -0.002923  -0.005772   0.095846   0.150773  -0.105862
     6  S   -0.000000   0.000100   0.000172  -0.010254  -0.105862   0.460560
     7  Na  -0.000002   0.000040   0.000044  -0.003254  -0.003154   0.007406
     8  S   -0.000000   0.000094   0.006124  -0.104551  -0.009282   0.004935
     9  S   -0.000843   0.010707   0.001622  -0.005570  -0.008952   0.006075
               7          8          9
     1  O   -0.000002  -0.000000  -0.000843
     2  C    0.000040   0.000094   0.010707
     3  S    0.000044   0.006124   0.001622
     4  C   -0.003254  -0.104551  -0.005570
     5  C   -0.003154  -0.009282  -0.008952
     6  S    0.007406   0.004935   0.006075
     7  Na   0.003765   0.008499   0.000009
     8  S    0.008499   0.439392   0.000151
     9  S    0.000009   0.000151  -0.009184
 Mulliken charges and spin densities:
               1          2
     1  O   -0.251288   0.040941
     2  C    0.089289   0.007882
     3  S    0.076117  -0.003186
     4  C   -0.127811   0.127712
     5  C   -0.138457   0.110788
     6  S   -0.236190   0.363132
     7  Na   0.764245   0.013354
     8  S   -0.255655   0.345362
     9  S    0.079750  -0.005985
 Sum of Mulliken charges =  -0.00000   1.00000
 Mulliken charges and spin densities with hydrogens summed into heavy atoms:
               1          2
     1  O   -0.251288   0.040941
     2  C    0.089289   0.007882
     3  S    0.076117  -0.003186
     4  C   -0.127811   0.127712
     5  C   -0.138457   0.110788
     6  S   -0.236190   0.363132
     7  Na   0.764245   0.013354
     8  S   -0.255655   0.345362
     9  S    0.079750  -0.005985
 Electronic spatial extent (au):  <R**2>=           2302.9497
 Charge=             -0.0000 electrons
 Dipole moment (field-independent basis, Debye):
    X=             13.4463    Y=             -0.0049    Z=              1.1875  Tot=             13.4987
 Quadrupole moment (field-independent basis, Debye-Ang):
   XX=            -44.0603   YY=            -90.5103   ZZ=            -79.6102
   XY=              0.3739   XZ=              4.2069   YZ=              0.0177
 Traceless Quadrupole moment (field-independent basis, Debye-Ang):
   XX=             27.3333   YY=            -19.1166   ZZ=             -8.2166
   XY=              0.3739   XZ=              4.2069   YZ=              0.0177
 Octapole moment (field-independent basis, Debye-Ang**2):
  XXX=            316.0898  YYY=              0.7046  ZZZ=              4.3654  XYY=              2.8956
  XXY=             -0.1134  XXZ=             14.1902  XZZ=             13.8918  YZZ=              0.0764
  YYZ=              2.1514  XYZ=              0.0959
 Hexadecapole moment (field-independent basis, Debye-Ang**3):
 XXXX=          -1134.0645 YYYY=           -989.1669 ZZZZ=            -96.5017 XXXY=              8.4198
 XXXZ=             66.5411 YYYX=             -0.1504 YYYZ=              0.0688 ZZZX=             13.2166
 ZZZY=              0.1066 XXYY=           -449.0804 XXZZ=           -293.6037 YYZZ=           -177.9703
 XXYZ=              0.1513 YYXZ=              4.5086 ZZXY=             -0.0848
 N-N= 7.829252504640D+02 E-N=-6.185542829781D+03  KE= 1.938682650759D+03
                          Isotropic Fermi Contact Couplings
        Atom                 a.u.       MegaHertz       Gauss      10(-4) cm-1
     1  O(17)              0.01250      -7.57471      -2.70284      -2.52665
     2  C(13)             -0.00308      -3.46569      -1.23665      -1.15603
     3  S(33)             -0.00559      -1.92122      -0.68554      -0.64085
     4  C(13)              0.01622      18.23748       6.50759       6.08337
     5  C(13)              0.01221      13.73142       4.89971       4.58031
     6  S(33)              0.04499      15.45185       5.51360       5.15418
     7  Na(23)            -0.00173      -2.04864      -0.73100      -0.68335
     8  S(33)              0.04350      14.94200       5.33168       4.98412
     9  S(33)             -0.00644      -2.21239      -0.78943      -0.73797
 --------------------------------------------------------
       Center         ----  Spin Dipole Couplings  ----
                      3XX-RR        3YY-RR        3ZZ-RR
 --------------------------------------------------------
     1   Atom       -0.084916     -0.082066      0.166981
     2   Atom        0.005062     -0.007545      0.002483
     3   Atom       -0.041444     -0.008683      0.050126
     4   Atom       -0.100504     -0.091419      0.191923
     5   Atom       -0.092462     -0.082577      0.175039
     6   Atom       -0.714189     -0.705740      1.419929
     7   Atom        0.001608     -0.003233      0.001626
     8   Atom       -0.687174     -0.674331      1.361504
     9   Atom       -0.032130     -0.000230      0.032361
 --------------------------------------------------------
                        XY            XZ            YZ
 --------------------------------------------------------
     1   Atom        0.000001      0.003969     -0.000167
     2   Atom       -0.000171     -0.000239      0.000013
     3   Atom        0.021523      0.000435      0.001011
     4   Atom       -0.000298      0.011932      0.000357
     5   Atom        0.000213      0.010726     -0.001838
     6   Atom        0.030685      0.059535     -0.026276
     7   Atom       -0.000307     -0.001983      0.000254
     8   Atom       -0.030370      0.060951      0.031179
     9   Atom       -0.019077     -0.001072     -0.001426
 --------------------------------------------------------


 ---------------------------------------------------------------------------------
              Anisotropic Spin Dipole Couplings in Principal Axis System
 ---------------------------------------------------------------------------------

       Atom             a.u.   MegaHertz   Gauss  10(-4) cm-1        Axes

              Baa    -0.0850     6.149     2.194     2.051  0.9999 -0.0011 -0.0158
     1 O(17)  Bbb    -0.0821     5.938     2.119     1.981  0.0011  1.0000  0.0007
              Bcc     0.1670   -12.087    -4.313    -4.032  0.0158 -0.0007  0.9999
 
              Baa    -0.0075    -1.013    -0.361    -0.338  0.0136  0.9999 -0.0010
     2 C(13)  Bbb     0.0025     0.330     0.118     0.110  0.0915 -0.0002  0.9958
              Bcc     0.0051     0.683     0.244     0.228  0.9957 -0.0136 -0.0915
 
              Baa    -0.0521    -2.136    -0.762    -0.713  0.8960 -0.4441  0.0006
     3 S(33)  Bbb     0.0020     0.080     0.029     0.027  0.4440  0.8958 -0.0228
              Bcc     0.0502     2.056     0.734     0.686  0.0096  0.0207  0.9997
 
              Baa    -0.1010   -13.553    -4.836    -4.521  0.9986  0.0326 -0.0407
     4 C(13)  Bbb    -0.0914   -12.266    -4.377    -4.092 -0.0326  0.9995  0.0001
              Bcc     0.1924    25.819     9.213     8.612  0.0407  0.0012  0.9992
 
              Baa    -0.0929   -12.466    -4.448    -4.158  0.9988 -0.0277 -0.0402
     5 C(13)  Bbb    -0.0826   -11.082    -3.954    -3.696  0.0280  0.9996  0.0060
              Bcc     0.1755    23.548     8.402     7.855  0.0400 -0.0071  0.9992
 
              Baa    -0.7427   -30.451   -10.866   -10.157  0.7592 -0.6502 -0.0288
     6 S(33)  Bbb    -0.6792   -27.845    -9.936    -9.288  0.6503  0.7596 -0.0089
              Bcc     1.4219    58.296    20.802    19.446  0.0277 -0.0119  0.9995
 
              Baa    -0.0033    -0.460    -0.164    -0.153  0.0501  0.9982 -0.0316
     7 Na(23) Bbb    -0.0004    -0.052    -0.018    -0.017  0.7077 -0.0132  0.7064
              Bcc     0.0036     0.512     0.183     0.171 -0.7047  0.0577  0.7071
 
              Baa    -0.7140   -29.272   -10.445    -9.764  0.7809  0.6239 -0.0323
     8 S(33)  Bbb    -0.6498   -26.641    -9.506    -8.887 -0.6240  0.7814  0.0068
              Bcc     1.3638    55.913    19.951    18.651  0.0295  0.0149  0.9995
 
              Baa    -0.0411    -1.684    -0.601    -0.562  0.9056  0.4236  0.0214
     9 S(33)  Bbb     0.0087     0.355     0.127     0.118 -0.4242  0.9049  0.0353
              Bcc     0.0324     1.329     0.474     0.443 -0.0045 -0.0410  0.9991
 

 ---------------------------------------------------------------------------------



 THE TEST OF A FIRST RATE INTELLIGENCE IS THE ABILITY TO HOLD TWO OPPOSED
 IDEAS IN THE MIND AT THE SAME TIME, AND STILL RETAIN THE ABILITY TO FUNCTION.
 ONE SHOULD, FOR EXAMPLE, BE ABLE TO SEE THAT THINGS ARE HOPELESS AND YET BE
 DETERMINED TO MAKE THEM OTHERWISE.

                                                       -- F. SCOTT FITZGERALD
 Error termination request processed by link 9999.
 Error termination via Lnk1e in /home/pub/g16/l9999.exe at Tue Apr 18 00:19:46 2023.
 Job cpu time:       0 days  2 hours 28 minutes 47.7 seconds.
 Elapsed time:       0 days  0 hours  3 minutes  5.5 seconds.
 File lengths (MBytes):  RWF=    101 Int=      0 D2E=      0 Chk=      5 Scr=      1
