 Entering Gaussian System, Link 0=g16
 Initial command:
 /home/pub/g16/l1.exe "/home/zz1/gauss/SCRDIR/Gau-3300452.inp" -scrdir="/home/zz1/gauss/SCRDIR/"
 Entering Link 1 = /home/pub/g16/l1.exe PID=   3300454.
  
 Copyright (c) 1988,1990,1992,1993,1995,1998,2003,2009,2016,
            Gaussian, Inc.  All Rights Reserved.
  
 This is part of the Gaussian(R) 16 program.  It is based on
 the Gaussian(R) 09 system (copyright 2009, Gaussian, Inc.),
 the Gaussian(R) 03 system (copyright 2003, Gaussian, Inc.),
 the Gaussian(R) 98 system (copyright 1998, Gaussian, Inc.),
 the Gaussian(R) 94 system (copyright 1995, Gaussian, Inc.),
 the Gaussian 92(TM) system (copyright 1992, Gaussian, Inc.),
 the Gaussian 90(TM) system (copyright 1990, Gaussian, Inc.),
 the Gaussian 88(TM) system (copyright 1988, Gaussian, Inc.),
 the Gaussian 86(TM) system (copyright 1986, Carnegie Mellon
 University), and the Gaussian 82(TM) system (copyright 1983,
 Carnegie Mellon University). Gaussian is a federally registered
 trademark of Gaussian, Inc.
  
 This software contains proprietary and confidential information,
 including trade secrets, belonging to Gaussian, Inc.
  
 This software is provided under written license and may be
 used, copied, transmitted, or stored only in accord with that
 written license.
  
 The following legend is applicable only to US Government
 contracts under FAR:
  
                    RESTRICTED RIGHTS LEGEND
  
 Use, reproduction and disclosure by the US Government is
 subject to restrictions as set forth in subparagraphs (a)
 and (c) of the Commercial Computer Software - Restricted
 Rights clause in FAR 52.227-19.
  
 Gaussian, Inc.
 340 Quinnipiac St., Bldg. 40, Wallingford CT 06492
  
  
 ---------------------------------------------------------------
 Warning -- This program may not be used in any manner that
 competes with the business of Gaussian, Inc. or will provide
 assistance to any competitor of Gaussian, Inc.  The licensee
 of this program is prohibited from giving any competitor of
 Gaussian, Inc. access to this program.  By using this program,
 the user acknowledges that Gaussian, Inc. is engaged in the
 business of creating and licensing software in the field of
 computational chemistry and represents and warrants to the
 licensee that it is not a competitor of Gaussian, Inc. and that
 it will not use this program in any manner prohibited above.
 ---------------------------------------------------------------
  

 Cite this work as:
 Gaussian 16, Revision A.03,
 M. J. Frisch, G. W. Trucks, H. B. Schlegel, G. E. Scuseria, 
 M. A. Robb, J. R. Cheeseman, G. Scalmani, V. Barone, 
 G. A. Petersson, H. Nakatsuji, X. Li, M. Caricato, A. V. Marenich, 
 J. Bloino, B. G. Janesko, R. Gomperts, B. Mennucci, H. P. Hratchian, 
 J. V. Ortiz, A. F. Izmaylov, J. L. Sonnenberg, D. Williams-Young, 
 F. Ding, F. Lipparini, F. Egidi, J. Goings, B. Peng, A. Petrone, 
 T. Henderson, D. Ranasinghe, V. G. Zakrzewski, J. Gao, N. Rega, 
 G. Zheng, W. Liang, M. Hada, M. Ehara, K. Toyota, R. Fukuda, 
 J. Hasegawa, M. Ishida, T. Nakajima, Y. Honda, O. Kitao, H. Nakai, 
 T. Vreven, K. Throssell, J. A. Montgomery, Jr., J. E. Peralta, 
 F. Ogliaro, M. J. Bearpark, J. J. Heyd, E. N. Brothers, K. N. Kudin, 
 V. N. Staroverov, T. A. Keith, R. Kobayashi, J. Normand, 
 K. Raghavachari, A. P. Rendell, J. C. Burant, S. S. Iyengar, 
 J. Tomasi, M. Cossi, J. M. Millam, M. Klene, C. Adamo, R. Cammi, 
 J. W. Ochterski, R. L. Martin, K. Morokuma, O. Farkas, 
 J. B. Foresman, and D. J. Fox, Gaussian, Inc., Wallingford CT, 2016.
 
 ******************************************
 Gaussian 16:  ES64L-G16RevA.03 25-Dec-2016
                 2-Jul-2023 
 ******************************************
 %chk=/home/zz1/proj/gauss/new/chk/Rb-UPOKUI-15/153.chk
 %CPU=0-48
 SetSPE:  set environment variable "MP_BIND" = "yes"
 SetSPE:  set environment variable "MP_BLIST" = "0,1,2,3,4,5,6,7,8,9,10,11,12,13,14,15,16,17,18,19,20,21,22,23,24,25,26,27,28,29,30,31,32,33,34,35,36,37,38,39,40,41,42,43,44,45,46,47,48"
 Will use up to   49 processors via shared memory.
 ----------------------------------------------------
 # M062X/Def2SVP opt(MaxCyc=10)/freq SCRF pop(Always)
 ----------------------------------------------------
 1/6=10,18=20,19=15,26=3,38=1/1,3;
 2/9=110,12=2,17=6,18=5,40=1/2;
 3/5=43,7=101,11=2,25=1,30=1,70=2201,71=1,74=-55/1,2,3;
 4//1;
 5/5=2,38=5/2;
 6/7=2,8=2,9=2,10=2,28=1/1;
 7//1,2,3,16;
 1/6=10,18=20,19=15,26=3/3(2);
 2/9=110/2;
 99//99;
 2/9=110/2;
 3/5=43,7=101,11=2,25=1,30=1,70=2205,71=1,74=-55/1,2,3;
 4/5=5,16=3,69=1/1;
 5/5=2,38=5/2;
 6/7=2,8=2,9=2,10=2,28=1/1;
 7//1,2,3,16;
 1/6=10,18=20,19=15,26=3/3(-6);
 2/9=110/2;
 6/7=2,8=2,9=2,10=2,19=2,28=1/1;
 99/9=1/99;
 ------------
 Rb-UPOKUI-15
 ------------
 Symbolic Z-matrix:
 Charge =  0 Multiplicity = 1
 Cl                    6.33185   2.0045    7.88246 
 Cl                    6.57248   3.75479   5.60673 
 Cl                    5.61814   4.58998   8.0847 
 O                     8.49131   5.32795   7.43068 
 O                     9.03851   3.05989   7.73193 
 C                     8.36324   4.08846   7.67162 
 C                     6.82567   3.36323   7.53962 
 Rb                    10.08402   0.40569   8.58793 
 

 GradGradGradGradGradGradGradGradGradGradGradGradGradGradGradGradGradGrad
 Berny optimization.
 Initialization pass.
                           ----------------------------
                           !    Initial Parameters    !
                           ! (Angstroms and Degrees)  !
 --------------------------                            --------------------------
 ! Name  Definition              Value          Derivative Info.                !
 --------------------------------------------------------------------------------
 ! R1    R(1,7)                  1.4858         estimate D2E/DX2                !
 ! R2    R(2,7)                  1.9883         estimate D2E/DX2                !
 ! R3    R(3,7)                  1.8056         estimate D2E/DX2                !
 ! R4    R(4,6)                  1.2692         estimate D2E/DX2                !
 ! R5    R(5,6)                  1.2319         estimate D2E/DX2                !
 ! R6    R(5,8)                  2.9784         estimate D2E/DX2                !
 ! R7    R(6,7)                  1.7051         estimate D2E/DX2                !
 ! A1    A(6,5,8)              161.9087         estimate D2E/DX2                !
 ! A2    A(4,6,5)              140.3001         estimate D2E/DX2                !
 ! A3    A(4,6,7)              119.4504         estimate D2E/DX2                !
 ! A4    A(5,6,7)               98.2189         estimate D2E/DX2                !
 ! A5    A(1,7,2)              111.2279         estimate D2E/DX2                !
 ! A6    A(1,7,3)              109.2314         estimate D2E/DX2                !
 ! A7    A(1,7,6)              132.128          estimate D2E/DX2                !
 ! A8    A(2,7,3)               94.273          estimate D2E/DX2                !
 ! A9    A(2,7,6)               96.1032         estimate D2E/DX2                !
 ! A10   A(3,7,6)              106.9005         estimate D2E/DX2                !
 ! D1    D(8,5,6,4)            142.8484         estimate D2E/DX2                !
 ! D2    D(8,5,6,7)            -55.0352         estimate D2E/DX2                !
 ! D3    D(4,6,7,1)           -172.7433         estimate D2E/DX2                !
 ! D4    D(4,6,7,2)             61.2626         estimate D2E/DX2                !
 ! D5    D(4,6,7,3)            -35.0991         estimate D2E/DX2                !
 ! D6    D(5,6,7,1)             20.2751         estimate D2E/DX2                !
 ! D7    D(5,6,7,2)           -105.719          estimate D2E/DX2                !
 ! D8    D(5,6,7,3)            157.9193         estimate D2E/DX2                !
 --------------------------------------------------------------------------------
 Trust Radius=3.00D-01 FncErr=1.00D-07 GrdErr=1.00D-06 EigMax=2.50D+02 EigMin=1.00D-04
 Number of steps in this run=     10 maximum allowed number of steps=    100.
 GradGradGradGradGradGradGradGradGradGradGradGradGradGradGradGradGradGrad

                          Input orientation:                          
 ---------------------------------------------------------------------
 Center     Atomic      Atomic             Coordinates (Angstroms)
 Number     Number       Type             X           Y           Z
 ---------------------------------------------------------------------
      1         17           0        6.331850    2.004500    7.882460
      2         17           0        6.572480    3.754790    5.606730
      3         17           0        5.618140    4.589980    8.084700
      4          8           0        8.491310    5.327950    7.430680
      5          8           0        9.038510    3.059890    7.731930
      6          6           0        8.363240    4.088460    7.671620
      7          6           0        6.825670    3.363230    7.539620
      8         37           0       10.084020    0.405690    8.587930
 ---------------------------------------------------------------------
                    Distance matrix (angstroms):
                    1          2          3          4          5
     1  Cl   0.000000
     2  Cl   2.881035   0.000000
     3  Cl   2.689794   2.783638   0.000000
     4  O    3.989072   3.079535   3.037671   0.000000
     5  O    2.909040   3.328763   3.763582   2.352504   0.000000
     6  C    2.917857   2.753530   2.820945   1.269169   1.231902
     7  C    1.485781   1.988338   1.805590   2.578051   2.241798
     8  Rb   4.139162   5.695168   6.140489   5.301377   2.978356
                    6          7          8
     6  C    0.000000
     7  C    1.705140   0.000000
     8  Rb   4.166954   4.523587   0.000000
 Stoichiometry    C2Cl3O2Rb
 Framework group  C1[X(C2Cl3O2Rb)]
 Deg. of freedom    18
 Full point group                 C1      NOp   1
 Largest Abelian subgroup         C1      NOp   1
 Largest concise Abelian subgroup C1      NOp   1
                         Standard orientation:                         
 ---------------------------------------------------------------------
 Center     Atomic      Atomic             Coordinates (Angstroms)
 Number     Number       Type             X           Y           Z
 ---------------------------------------------------------------------
      1         17           0        0.637503   -1.587492   -0.046460
      2         17           0        2.265708    0.141441    1.584523
      3         17           0        2.831489   -0.425463   -1.081402
      4          8           0        1.543285    2.268126   -0.522334
      5          8           0       -0.453922    1.108910   -0.073271
      6          6           0        0.723508    1.310625   -0.374190
      7          6           0        1.315438   -0.267097   -0.113586
      8         37           0       -3.201040   -0.039506   -0.001939
 ---------------------------------------------------------------------
 Rotational constants (GHZ):           1.4286786           0.3272947           0.3104747
 Standard basis: def2SVP (5D, 7F)
 There are   143 symmetry adapted cartesian basis functions of A   symmetry.
 There are   134 symmetry adapted basis functions of A   symmetry.
   134 basis functions,   248 primitive gaussians,   143 cartesian basis functions
    44 alpha electrons       44 beta electrons
       nuclear repulsion energy       613.5673074944 Hartrees.
 NAtoms=    8 NActive=    8 NUniq=    8 SFac= 1.00D+00 NAtFMM=   60 NAOKFM=F Big=F
 Integral buffers will be    131072 words long.
 Raffenetti 2 integral format.
 Two-electron integral symmetry is turned on.
 ------------------------------------------------------------------------------
 Polarizable Continuum Model (PCM)
 =================================
 Model                : PCM.
 Atomic radii         : UFF (Universal Force Field).
 Polarization charges : Total charges.
 Charge compensation  : None.
 Solution method      : On-the-fly selection.
 Cavity type          : Scaled VdW (van der Waals Surface) (Alpha=1.100).
 Cavity algorithm     : GePol (No added spheres)
                        Default sphere list used, NSphG=    8.
                        Lebedev-Laikov grids with approx.  5.0 points / Ang**2.
                        Smoothing algorithm: York/Karplus (Gamma=1.0000).
                        Polarization charges: spherical gaussians, with
                                              point-specific exponents (IZeta= 3).
                        Self-potential: point-specific (ISelfS= 7).
                        Self-field    : sphere-specific E.n sum rule (ISelfD= 2).
 1st derivatives      : Analytical E(r).r(x)/FMM algorithm (CHGder, D1EAlg=3).
                        Cavity 1st derivative terms included.
 Solvent              : Water, Eps=  78.355300 Eps(inf)=   1.777849
 ------------------------------------------------------------------------------
 Spheres list:
 ISph  on   Nord     Re0    Alpha      Xe            Ye            Ze
    1  Cl      1    1.9735  1.100      0.637503     -1.587492     -0.046460
    2  Cl      2    1.9735  1.100      2.265708      0.141441      1.584523
    3  Cl      3    1.9735  1.100      2.831489     -0.425463     -1.081402
    4   O      4    1.7500  1.100      1.543285      2.268126     -0.522334
    5   O      5    1.7500  1.100     -0.453922      1.108910     -0.073271
    6   C      6    1.9255  1.100      0.723508      1.310625     -0.374190
    7   C      7    1.9255  1.100      1.315438     -0.267097     -0.113586
    8  Rb      8    2.0570  1.100     -3.201040     -0.039506     -0.001939
 ------------------------------------------------------------------------------
 One-electron integrals computed using PRISM.
 PrsmSu:  requested number of processors reduced to:  30 ShMem   1 Linda.
   1 Symmetry operations used in ECPInt.
 ECPInt:  NShTT=    1711 NPrTT=    7033 LenC2=    1672 LenP2D=    5070.
 LDataN:  DoStor=T MaxTD1= 6 Len=  172
 Number of processors reduced to  35 by ecpmxn.
 NBasis=   134 RedAO= T EigKep=  3.33D-03  NBF=   134
 NBsUse=   134 1.00D-06 EigRej= -1.00D+00 NBFU=   134
 Defaulting to unpruned grid for atomic number  37.
 ExpMin= 1.38D-02 ExpMax= 1.04D+04 ExpMxC= 1.57D+03 IAcc=3 IRadAn=         5 AccDes= 0.00D+00
 Harris functional with IExCor= 1009 and IRadAn=       5 diagonalized for initial guess.
 HarFok:  IExCor= 1009 AccDes= 0.00D+00 IRadAn=         5 IDoV= 1 UseB2=F ITyADJ=14
 ICtDFT=  3500011 ScaDFX=  1.000000  1.000000  1.000000  1.000000
 Defaulting to unpruned grid for atomic number  37.
 FoFCou: FMM=F IPFlag=           0 FMFlag=      100000 FMFlg1=           0
         NFxFlg=           0 DoJE=T BraDBF=F KetDBF=T FulRan=T
         wScrn=  0.000000 ICntrl=       500 IOpCl=  0 I1Cent=   200000004 NGrid=           0
         NMat0=    1 NMatS0=      1 NMatT0=    0 NMatD0=    1 NMtDS0=    0 NMtDT0=    0
 Petite list used in FoFCou.
 Keep R1 ints in memory in canonical form, NReq=88330718.
 Requested convergence on RMS density matrix=1.00D-08 within 128 cycles.
 Requested convergence on MAX density matrix=1.00D-06.
 Requested convergence on             energy=1.00D-06.
 No special actions if energy rises.
 Defaulting to unpruned grid for atomic number  37.
 Defaulting to unpruned grid for atomic number  37.
 Defaulting to unpruned grid for atomic number  37.
 Defaulting to unpruned grid for atomic number  37.
 Defaulting to unpruned grid for atomic number  37.
 Defaulting to unpruned grid for atomic number  37.
 Defaulting to unpruned grid for atomic number  37.
 Defaulting to unpruned grid for atomic number  37.
 Defaulting to unpruned grid for atomic number  37.
 Defaulting to unpruned grid for atomic number  37.
 Defaulting to unpruned grid for atomic number  37.
 Defaulting to unpruned grid for atomic number  37.
 Defaulting to unpruned grid for atomic number  37.
 Defaulting to unpruned grid for atomic number  37.
 Defaulting to unpruned grid for atomic number  37.
 Defaulting to unpruned grid for atomic number  37.
 Defaulting to unpruned grid for atomic number  37.
 Defaulting to unpruned grid for atomic number  37.
 Defaulting to unpruned grid for atomic number  37.
 Defaulting to unpruned grid for atomic number  37.
 Defaulting to unpruned grid for atomic number  37.
 Defaulting to unpruned grid for atomic number  37.
 Defaulting to unpruned grid for atomic number  37.
 Defaulting to unpruned grid for atomic number  37.
 Defaulting to unpruned grid for atomic number  37.
 Defaulting to unpruned grid for atomic number  37.
 Defaulting to unpruned grid for atomic number  37.
 Defaulting to unpruned grid for atomic number  37.
 Defaulting to unpruned grid for atomic number  37.
 Defaulting to unpruned grid for atomic number  37.
 Defaulting to unpruned grid for atomic number  37.
 Defaulting to unpruned grid for atomic number  37.
 Defaulting to unpruned grid for atomic number  37.
 Defaulting to unpruned grid for atomic number  37.
 Defaulting to unpruned grid for atomic number  37.
 Defaulting to unpruned grid for atomic number  37.
 Defaulting to unpruned grid for atomic number  37.
 Defaulting to unpruned grid for atomic number  37.
 Defaulting to unpruned grid for atomic number  37.
 Defaulting to unpruned grid for atomic number  37.
 Defaulting to unpruned grid for atomic number  37.
 Defaulting to unpruned grid for atomic number  37.
 Defaulting to unpruned grid for atomic number  37.
 Defaulting to unpruned grid for atomic number  37.
 Defaulting to unpruned grid for atomic number  37.
 Defaulting to unpruned grid for atomic number  37.
 Defaulting to unpruned grid for atomic number  37.
 Defaulting to unpruned grid for atomic number  37.
 Defaulting to unpruned grid for atomic number  37.
 CoulSu:  requested number of processors reduced to:  28 ShMem   1 Linda.
 Inv3:  Mode=1 IEnd=     5322672.
 Iteration    1 A*A^-1 deviation from unit magnitude is 3.66D-15 for    598.
 Iteration    1 A*A^-1 deviation from orthogonality  is 1.51D-15 for    866    710.
 Iteration    1 A^-1*A deviation from unit magnitude is 3.44D-15 for      8.
 Iteration    1 A^-1*A deviation from orthogonality  is 1.80D-15 for    320    123.
 CoulSu:  requested number of processors reduced to:  28 ShMem   1 Linda.
 CoulSu:  requested number of processors reduced to:  28 ShMem   1 Linda.
 CoulSu:  requested number of processors reduced to:  30 ShMem   1 Linda.
 CoulSu:  requested number of processors reduced to:  28 ShMem   1 Linda.
 Error on total polarization charges =  0.00769
 SCF Done:  E(RM062X) =  -1630.59445991     A.U. after   14 cycles
            NFock= 14  Conv=0.34D-08     -V/T= 2.0124

 **********************************************************************

            Population analysis using the SCF density.

 **********************************************************************

 Orbital symmetries:
       Occupied  (A) (A) (A) (A) (A) (A) (A) (A) (A) (A) (A) (A)
                 (A) (A) (A) (A) (A) (A) (A) (A) (A) (A) (A) (A)
                 (A) (A) (A) (A) (A) (A) (A) (A) (A) (A) (A) (A)
                 (A) (A) (A) (A) (A) (A) (A) (A)
       Virtual   (A) (A) (A) (A) (A) (A) (A) (A) (A) (A) (A) (A)
                 (A) (A) (A) (A) (A) (A) (A) (A) (A) (A) (A) (A)
                 (A) (A) (A) (A) (A) (A) (A) (A) (A) (A) (A) (A)
                 (A) (A) (A) (A) (A) (A) (A) (A) (A) (A) (A) (A)
                 (A) (A) (A) (A) (A) (A) (A) (A) (A) (A) (A) (A)
                 (A) (A) (A) (A) (A) (A) (A) (A) (A) (A) (A) (A)
                 (A) (A) (A) (A) (A) (A) (A) (A) (A) (A) (A) (A)
                 (A) (A) (A) (A) (A) (A)
 The electronic state is 1-A.
 Alpha  occ. eigenvalues -- -102.67655-102.61674-102.60457 -19.59532 -19.59184
 Alpha  occ. eigenvalues --  -10.69100 -10.67521  -9.85402  -9.78840  -9.77387
 Alpha  occ. eigenvalues --   -7.58088  -7.57390  -7.57327  -7.51523  -7.50850
 Alpha  occ. eigenvalues --   -7.50831  -7.50056  -7.49419  -7.49416  -1.33144
 Alpha  occ. eigenvalues --   -1.14960  -1.08894  -1.06230  -0.92408  -0.87297
 Alpha  occ. eigenvalues --   -0.70146  -0.67413  -0.67404  -0.67334  -0.61247
 Alpha  occ. eigenvalues --   -0.55059  -0.54051  -0.53902  -0.49672  -0.48134
 Alpha  occ. eigenvalues --   -0.42550  -0.39995  -0.38025  -0.37285  -0.35075
 Alpha  occ. eigenvalues --   -0.33067  -0.32791  -0.32624  -0.28677
 Alpha virt. eigenvalues --   -0.01202   0.00362   0.01840   0.01932   0.02817
 Alpha virt. eigenvalues --    0.05156   0.05313   0.05552   0.05875   0.06244
 Alpha virt. eigenvalues --    0.07648   0.07830   0.11985   0.17089   0.25085
 Alpha virt. eigenvalues --    0.31583   0.32671   0.32832   0.32854   0.32911
 Alpha virt. eigenvalues --    0.33559   0.37794   0.39595   0.39720   0.40249
 Alpha virt. eigenvalues --    0.45523   0.53148   0.55021   0.58215   0.59237
 Alpha virt. eigenvalues --    0.59653   0.62158   0.62953   0.64309   0.67743
 Alpha virt. eigenvalues --    0.72678   0.73875   0.76578   0.77953   0.79970
 Alpha virt. eigenvalues --    0.80031   0.81865   0.82408   0.84292   0.84983
 Alpha virt. eigenvalues --    0.85773   0.88382   0.89307   0.90122   0.93311
 Alpha virt. eigenvalues --    0.94473   0.96839   1.00189   1.04368   1.06191
 Alpha virt. eigenvalues --    1.06422   1.11283   1.15841   1.17544   1.22026
 Alpha virt. eigenvalues --    1.24541   1.26696   1.30835   1.34522   1.36549
 Alpha virt. eigenvalues --    1.41722   1.52197   1.55394   1.68861   1.69284
 Alpha virt. eigenvalues --    1.74167   1.80159   1.82767   2.02115   2.03545
 Alpha virt. eigenvalues --    2.13924   2.26380   2.29085   2.48272   2.73710
 Alpha virt. eigenvalues --    2.77528   2.78487   2.81982   2.99242   3.25985
 Alpha virt. eigenvalues --    3.29245   3.38278   3.61708   3.82769  19.27704
          Condensed to atoms (all electrons):
               1          2          3          4          5          6
     1  Cl  16.784120  -0.071200  -0.099824   0.001144  -0.003042  -0.007880
     2  Cl  -0.071200  17.210154  -0.088609   0.002510  -0.000954  -0.032953
     3  Cl  -0.099824  -0.088609  17.206328   0.007934   0.003613  -0.020664
     4  O    0.001144   0.002510   0.007934   7.944319  -0.052612   0.644132
     5  O   -0.003042  -0.000954   0.003613  -0.052612   8.049594   0.548799
     6  C   -0.007880  -0.032953  -0.020664   0.644132   0.548799   4.485904
     7  C    0.243229   0.193339   0.127371  -0.121263  -0.171713   0.008071
     8  Rb   0.019869   0.008855   0.004037   0.001989   0.051268  -0.009744
               7          8
     1  Cl   0.243229   0.019869
     2  Cl   0.193339   0.008855
     3  Cl   0.127371   0.004037
     4  O   -0.121263   0.001989
     5  O   -0.171713   0.051268
     6  C    0.008071  -0.009744
     7  C    5.886048   0.013002
     8  Rb   0.013002   8.036125
 Mulliken charges:
               1
     1  Cl   0.133583
     2  Cl  -0.221143
     3  Cl  -0.140184
     4  O   -0.428153
     5  O   -0.424953
     6  C    0.384334
     7  C   -0.178084
     8  Rb   0.874600
 Sum of Mulliken charges =  -0.00000
 Mulliken charges with hydrogens summed into heavy atoms:
               1
     1  Cl   0.133583
     2  Cl  -0.221143
     3  Cl  -0.140184
     4  O   -0.428153
     5  O   -0.424953
     6  C    0.384334
     7  C   -0.178084
     8  Rb   0.874600
 Electronic spatial extent (au):  <R**2>=           2046.1301
 Charge=              0.0000 electrons
 Dipole moment (field-independent basis, Debye):
    X=            -20.5575    Y=             -7.3275    Z=             -0.3101  Tot=             21.8266
 Quadrupole moment (field-independent basis, Debye-Ang):
   XX=            -42.2581   YY=            -84.7859   ZZ=            -76.2017
   XY=             -4.8461   XZ=             -0.0357   YZ=              2.0266
 Traceless Quadrupole moment (field-independent basis, Debye-Ang):
   XX=             25.4904   YY=            -17.0373   ZZ=             -8.4531
   XY=             -4.8461   XZ=             -0.0357   YZ=              2.0266
 Octapole moment (field-independent basis, Debye-Ang**2):
  XXX=           -347.9439  YYY=            -43.5661  ZZZ=             -3.7206  XYY=            -69.7579
  XXY=            -16.1314  XXZ=              0.3117  XZZ=            -61.1078  YZZ=             -2.4320
  YYZ=              6.8097  XYZ=              3.4162
 Hexadecapole moment (field-independent basis, Debye-Ang**3):
 XXXX=          -1578.1904 YYYY=           -611.4731 ZZZZ=           -374.5038 XXXY=             -5.1811
 XXXZ=             -3.0697 YYYX=            -36.2098 YYYZ=             16.6097 ZZZX=             -3.8627
 ZZZY=              1.6673 XXYY=           -459.4610 XXZZ=           -406.8354 YYZZ=           -157.4591
 XXYZ=              6.8038 YYXZ=             11.3815 ZZXY=              1.4564
 N-N= 6.135673074944D+02 E-N=-5.094071417493D+03  KE= 1.610685812379D+03
 PrsmSu:  requested number of processors reduced to:  30 ShMem   1 Linda.
   1 Symmetry operations used in ECPInt.
 ECPInt:  NShTT=    1711 NPrTT=    7033 LenC2=    1672 LenP2D=    5070.
 LDataN:  DoStor=T MaxTD1= 7 Len=  274
 Number of processors reduced to  37 by ecpmxn.
 D1PCM: PCM CHGder 1st derivatives, ID1Alg=3 FixD1E=F DoIter=F DoCFld=F I1PDM=0.
 CoulSu:  requested number of processors reduced to:  48 ShMem   1 Linda.
 CoulSu:  requested number of processors reduced to:  48 ShMem   1 Linda.
 CoulSu:  requested number of processors reduced to:  47 ShMem   1 Linda.
 CoulSu:  requested number of processors reduced to:  29 ShMem   1 Linda.
 CoulSu:  requested number of processors reduced to:  30 ShMem   1 Linda.
 CoulSu:  requested number of processors reduced to:  48 ShMem   1 Linda.
 CoulSu:  requested number of processors reduced to:  48 ShMem   1 Linda.
 Calling FoFJK, ICntrl=      2127 FMM=F ISym2X=0 I1Cent= 0 IOpClX= 0 NMat=1 NMatS=1 NMatT=0.
 Defaulting to unpruned grid for atomic number  37.
 Defaulting to unpruned grid for atomic number  37.
 Defaulting to unpruned grid for atomic number  37.
 Defaulting to unpruned grid for atomic number  37.
 Defaulting to unpruned grid for atomic number  37.
 Defaulting to unpruned grid for atomic number  37.
 Defaulting to unpruned grid for atomic number  37.
 Defaulting to unpruned grid for atomic number  37.
 Defaulting to unpruned grid for atomic number  37.
 Defaulting to unpruned grid for atomic number  37.
 Defaulting to unpruned grid for atomic number  37.
 Defaulting to unpruned grid for atomic number  37.
 Defaulting to unpruned grid for atomic number  37.
 Defaulting to unpruned grid for atomic number  37.
 Defaulting to unpruned grid for atomic number  37.
 Defaulting to unpruned grid for atomic number  37.
 Defaulting to unpruned grid for atomic number  37.
 Defaulting to unpruned grid for atomic number  37.
 Defaulting to unpruned grid for atomic number  37.
 Defaulting to unpruned grid for atomic number  37.
 Defaulting to unpruned grid for atomic number  37.
 Defaulting to unpruned grid for atomic number  37.
 Defaulting to unpruned grid for atomic number  37.
 Defaulting to unpruned grid for atomic number  37.
 Defaulting to unpruned grid for atomic number  37.
 Defaulting to unpruned grid for atomic number  37.
 Defaulting to unpruned grid for atomic number  37.
 Defaulting to unpruned grid for atomic number  37.
 Defaulting to unpruned grid for atomic number  37.
 Defaulting to unpruned grid for atomic number  37.
 Defaulting to unpruned grid for atomic number  37.
 Defaulting to unpruned grid for atomic number  37.
 Defaulting to unpruned grid for atomic number  37.
 Defaulting to unpruned grid for atomic number  37.
 Defaulting to unpruned grid for atomic number  37.
 Defaulting to unpruned grid for atomic number  37.
 Defaulting to unpruned grid for atomic number  37.
 Defaulting to unpruned grid for atomic number  37.
 Defaulting to unpruned grid for atomic number  37.
 Defaulting to unpruned grid for atomic number  37.
 Defaulting to unpruned grid for atomic number  37.
 Defaulting to unpruned grid for atomic number  37.
 Defaulting to unpruned grid for atomic number  37.
 Defaulting to unpruned grid for atomic number  37.
 Defaulting to unpruned grid for atomic number  37.
 Defaulting to unpruned grid for atomic number  37.
 Defaulting to unpruned grid for atomic number  37.
 Defaulting to unpruned grid for atomic number  37.
 Defaulting to unpruned grid for atomic number  37.
 ***** Axes restored to original set *****
 -------------------------------------------------------------------
 Center     Atomic                   Forces (Hartrees/Bohr)
 Number     Number              X              Y              Z
 -------------------------------------------------------------------
      1       17          -0.041006731   -0.199286319    0.049778926
      2       17           0.008961410   -0.015420082   -0.001120235
      3       17          -0.012628508    0.017913620    0.021545210
      4        8          -0.004213051   -0.081076468    0.027143118
      5        8           0.046688702    0.013627256    0.012270344
      6        6          -0.028162823    0.009393643   -0.033225498
      7        6           0.033292208    0.248886232   -0.074250421
      8       37          -0.002931206    0.005962116   -0.002141444
 -------------------------------------------------------------------
 Cartesian Forces:  Max     0.248886232 RMS     0.072336693

 GradGradGradGradGradGradGradGradGradGradGradGradGradGradGradGradGradGrad
 Berny optimization.
 FormGI is forming the generalized inverse of G from B-inverse, IUseBI=4.
 Internal  Forces:  Max     0.207355784 RMS     0.050881663
 Search for a local minimum.
 Step number   1 out of a maximum of   10
 All quantities printed in internal units (Hartrees-Bohrs-Radians)
 Mixed Optimization -- RFO/linear search
 Second derivative matrix not updated -- first step.
 ITU=  0
     Eigenvalues ---    0.00230   0.01959   0.02764   0.03915   0.05865
     Eigenvalues ---    0.12631   0.15523   0.17762   0.23908   0.25000
     Eigenvalues ---    0.25000   0.25000   0.25000   0.25000   0.25681
     Eigenvalues ---    0.76538   0.81585   0.90298
 RFO step:  Lambda=-1.02630758D-01 EMin= 2.30000000D-03
 Linear search not attempted -- first point.
 Maximum step size (   0.300) exceeded in Quadratic search.
    -- Step size scaled by   0.705
 Iteration  1 RMS(Cart)=  0.10198318 RMS(Int)=  0.00415903
 Iteration  2 RMS(Cart)=  0.00694118 RMS(Int)=  0.00145421
 Iteration  3 RMS(Cart)=  0.00001076 RMS(Int)=  0.00145418
 Iteration  4 RMS(Cart)=  0.00000001 RMS(Int)=  0.00145418
 Variable       Old X    -DE/DX   Delta X   Delta X   Delta X     New X
                                 (Linear)    (Quad)   (Total)
    R1        2.80772   0.20736   0.00000   0.15910   0.15910   2.96681
    R2        3.75741  -0.00307   0.00000  -0.00840  -0.00840   3.74902
    R3        3.41207   0.02712   0.00000   0.05316   0.05316   3.46523
    R4        2.39838  -0.08476   0.00000  -0.06882  -0.06882   2.32956
    R5        2.32796   0.00812   0.00000   0.00569   0.00569   2.33365
    R6        5.62828  -0.00695   0.00000  -0.03759  -0.03759   5.59068
    R7        3.22225  -0.01160   0.00000  -0.02916  -0.02916   3.19308
    A1        2.82584  -0.00160   0.00000  -0.00319  -0.00319   2.82265
    A2        2.44870  -0.03754   0.00000  -0.07029  -0.07214   2.37655
    A3        2.08480  -0.02623   0.00000  -0.04734  -0.04843   2.03637
    A4        1.71424   0.06842   0.00000   0.14167   0.14033   1.85457
    A5        1.94129   0.00621   0.00000  -0.00105  -0.00441   1.93688
    A6        1.90645   0.02859   0.00000   0.05515   0.05403   1.96048
    A7        2.30607  -0.05623   0.00000  -0.12062  -0.12284   2.18323
    A8        1.64538   0.02966   0.00000   0.09463   0.09359   1.73897
    A9        1.67732   0.00935   0.00000   0.01903   0.01644   1.69376
   A10        1.86577   0.00765   0.00000   0.01836   0.01728   1.88305
    D1        2.49318  -0.01135   0.00000  -0.05348  -0.05121   2.44197
    D2       -0.96055   0.01223   0.00000   0.05785   0.05559  -0.90496
    D3       -3.01494   0.00221   0.00000   0.02774   0.02972  -2.98522
    D4        1.06923   0.02570   0.00000   0.10182   0.10213   1.17137
    D5       -0.61259  -0.00964   0.00000  -0.00662  -0.00570  -0.61829
    D6        0.35387  -0.00765   0.00000  -0.03864  -0.03880   0.31507
    D7       -1.84514   0.01583   0.00000   0.03544   0.03361  -1.81153
    D8        2.75621  -0.01950   0.00000  -0.07300  -0.07422   2.68199
         Item               Value     Threshold  Converged?
 Maximum Force            0.207356     0.000450     NO 
 RMS     Force            0.050882     0.000300     NO 
 Maximum Displacement     0.221839     0.001800     NO 
 RMS     Displacement     0.099548     0.001200     NO 
 Predicted change in Energy=-5.271159D-02
 GradGradGradGradGradGradGradGradGradGradGradGradGradGradGradGradGradGrad

                          Input orientation:                          
 ---------------------------------------------------------------------
 Center     Atomic      Atomic             Coordinates (Angstroms)
 Number     Number       Type             X           Y           Z
 ---------------------------------------------------------------------
      1         17           0        6.298490    1.973798    7.862666
      2         17           0        6.565933    3.764056    5.548804
      3         17           0        5.610989    4.705980    8.140537
      4          8           0        8.490571    5.230063    7.480703
      5          8           0        9.066466    3.029433    7.738711
      6          6           0        8.333401    4.019452    7.652160
      7          6           0        6.757958    3.429259    7.494792
      8         37           0       10.201412    0.442450    8.617296
 ---------------------------------------------------------------------
                    Distance matrix (angstroms):
                    1          2          3          4          5
     1  Cl   0.000000
     2  Cl   2.937773   0.000000
     3  Cl   2.831022   2.918256   0.000000
     4  O    3.943904   3.096069   3.000339   0.000000
     5  O    2.965033   3.404120   3.861683   2.289322   0.000000
     6  C    2.893074   2.759217   2.849799   1.232752   1.234914
     7  C    1.569971   1.983894   1.833723   2.499008   2.355539
     8  Rb   4.259964   5.802191   6.283070   5.209612   2.958462
                    6          7          8
     6  C    0.000000
     7  C    1.689708   0.000000
     8  Rb   4.149205   4.694509   0.000000
 Stoichiometry    C2Cl3O2Rb
 Framework group  C1[X(C2Cl3O2Rb)]
 Deg. of freedom    18
 Full point group                 C1      NOp   1
 Largest Abelian subgroup         C1      NOp   1
 Largest concise Abelian subgroup C1      NOp   1
                         Standard orientation:                         
 ---------------------------------------------------------------------
 Center     Atomic      Atomic             Coordinates (Angstroms)
 Number     Number       Type             X           Y           Z
 ---------------------------------------------------------------------
      1         17           0        0.693036   -1.642236   -0.032182
      2         17           0        2.302047    0.157608    1.641783
      3         17           0        2.915027   -0.309472   -1.172877
      4          8           0        1.419821    2.204981   -0.506609
      5          8           0       -0.511981    1.066862   -0.044200
      6          6           0        0.681251    1.237160   -0.312921
      7          6           0        1.434054   -0.259471   -0.092711
      8         37           0       -3.254768   -0.041654   -0.015785
 ---------------------------------------------------------------------
 Rotational constants (GHZ):           1.3974927           0.3139650           0.3016021
 Standard basis: def2SVP (5D, 7F)
 There are   143 symmetry adapted cartesian basis functions of A   symmetry.
 There are   134 symmetry adapted basis functions of A   symmetry.
   134 basis functions,   248 primitive gaussians,   143 cartesian basis functions
    44 alpha electrons       44 beta electrons
       nuclear repulsion energy       603.3955202597 Hartrees.
 NAtoms=    8 NActive=    8 NUniq=    8 SFac= 1.00D+00 NAtFMM=   60 NAOKFM=F Big=F
 Integral buffers will be    131072 words long.
 Raffenetti 2 integral format.
 Two-electron integral symmetry is turned on.
 ------------------------------------------------------------------------------
 Polarizable Continuum Model (PCM)
 =================================
 Model                : PCM.
 Atomic radii         : UFF (Universal Force Field).
 Polarization charges : Total charges.
 Charge compensation  : None.
 Solution method      : On-the-fly selection.
 Cavity type          : Scaled VdW (van der Waals Surface) (Alpha=1.100).
 Cavity algorithm     : GePol (No added spheres)
                        Default sphere list used, NSphG=    8.
                        Lebedev-Laikov grids with approx.  5.0 points / Ang**2.
                        Smoothing algorithm: York/Karplus (Gamma=1.0000).
                        Polarization charges: spherical gaussians, with
                                              point-specific exponents (IZeta= 3).
                        Self-potential: point-specific (ISelfS= 7).
                        Self-field    : sphere-specific E.n sum rule (ISelfD= 2).
 1st derivatives      : Analytical E(r).r(x)/FMM algorithm (CHGder, D1EAlg=3).
                        Cavity 1st derivative terms included.
 Solvent              : Water, Eps=  78.355300 Eps(inf)=   1.777849
 ------------------------------------------------------------------------------
 Spheres list:
 ISph  on   Nord     Re0    Alpha      Xe            Ye            Ze
    1  Cl      1    1.9735  1.100      0.693036     -1.642236     -0.032182
    2  Cl      2    1.9735  1.100      2.302047      0.157608      1.641783
    3  Cl      3    1.9735  1.100      2.915027     -0.309472     -1.172877
    4   O      4    1.7500  1.100      1.419821      2.204981     -0.506609
    5   O      5    1.7500  1.100     -0.511981      1.066862     -0.044200
    6   C      6    1.9255  1.100      0.681251      1.237160     -0.312921
    7   C      7    1.9255  1.100      1.434054     -0.259471     -0.092711
    8  Rb      8    2.0570  1.100     -3.254768     -0.041654     -0.015785
 ------------------------------------------------------------------------------
 One-electron integrals computed using PRISM.
 PrsmSu:  requested number of processors reduced to:  30 ShMem   1 Linda.
   1 Symmetry operations used in ECPInt.
 ECPInt:  NShTT=    1711 NPrTT=    7033 LenC2=    1670 LenP2D=    5053.
 LDataN:  DoStor=T MaxTD1= 6 Len=  172
 Number of processors reduced to  35 by ecpmxn.
 NBasis=   134 RedAO= T EigKep=  3.74D-03  NBF=   134
 NBsUse=   134 1.00D-06 EigRej= -1.00D+00 NBFU=   134
 Defaulting to unpruned grid for atomic number  37.
 Initial guess from the checkpoint file:  "/home/zz1/proj/gauss/new/chk/Rb-UPOKUI-15/153.chk"
 B after Tr=    -0.000000   -0.000000   -0.000000
         Rot=    0.999949   -0.007502    0.000103   -0.006688 Ang=  -1.15 deg.
 ExpMin= 1.38D-02 ExpMax= 1.04D+04 ExpMxC= 1.57D+03 IAcc=3 IRadAn=         5 AccDes= 0.00D+00
 Harris functional with IExCor= 1009 and IRadAn=       5 diagonalized for initial guess.
 HarFok:  IExCor= 1009 AccDes= 0.00D+00 IRadAn=         5 IDoV= 1 UseB2=F ITyADJ=14
 ICtDFT=  3500011 ScaDFX=  1.000000  1.000000  1.000000  1.000000
 Defaulting to unpruned grid for atomic number  37.
 FoFCou: FMM=F IPFlag=           0 FMFlag=      100000 FMFlg1=           0
         NFxFlg=           0 DoJE=T BraDBF=F KetDBF=T FulRan=T
         wScrn=  0.000000 ICntrl=       500 IOpCl=  0 I1Cent=   200000004 NGrid=           0
         NMat0=    1 NMatS0=      1 NMatT0=    0 NMatD0=    1 NMtDS0=    0 NMtDT0=    0
 Petite list used in FoFCou.
 Keep R1 ints in memory in canonical form, NReq=88330718.
 Requested convergence on RMS density matrix=1.00D-08 within 128 cycles.
 Requested convergence on MAX density matrix=1.00D-06.
 Requested convergence on             energy=1.00D-06.
 No special actions if energy rises.
 Defaulting to unpruned grid for atomic number  37.
 Defaulting to unpruned grid for atomic number  37.
 Defaulting to unpruned grid for atomic number  37.
 Defaulting to unpruned grid for atomic number  37.
 Defaulting to unpruned grid for atomic number  37.
 Defaulting to unpruned grid for atomic number  37.
 Defaulting to unpruned grid for atomic number  37.
 Defaulting to unpruned grid for atomic number  37.
 Defaulting to unpruned grid for atomic number  37.
 Defaulting to unpruned grid for atomic number  37.
 Defaulting to unpruned grid for atomic number  37.
 Defaulting to unpruned grid for atomic number  37.
 Defaulting to unpruned grid for atomic number  37.
 Defaulting to unpruned grid for atomic number  37.
 Defaulting to unpruned grid for atomic number  37.
 Defaulting to unpruned grid for atomic number  37.
 Defaulting to unpruned grid for atomic number  37.
 Defaulting to unpruned grid for atomic number  37.
 Defaulting to unpruned grid for atomic number  37.
 Defaulting to unpruned grid for atomic number  37.
 Defaulting to unpruned grid for atomic number  37.
 Defaulting to unpruned grid for atomic number  37.
 Defaulting to unpruned grid for atomic number  37.
 Defaulting to unpruned grid for atomic number  37.
 Defaulting to unpruned grid for atomic number  37.
 Defaulting to unpruned grid for atomic number  37.
 Defaulting to unpruned grid for atomic number  37.
 Defaulting to unpruned grid for atomic number  37.
 Defaulting to unpruned grid for atomic number  37.
 Defaulting to unpruned grid for atomic number  37.
 Defaulting to unpruned grid for atomic number  37.
 Defaulting to unpruned grid for atomic number  37.
 Defaulting to unpruned grid for atomic number  37.
 Defaulting to unpruned grid for atomic number  37.
 Defaulting to unpruned grid for atomic number  37.
 Defaulting to unpruned grid for atomic number  37.
 Defaulting to unpruned grid for atomic number  37.
 Defaulting to unpruned grid for atomic number  37.
 Defaulting to unpruned grid for atomic number  37.
 Defaulting to unpruned grid for atomic number  37.
 Defaulting to unpruned grid for atomic number  37.
 Defaulting to unpruned grid for atomic number  37.
 Defaulting to unpruned grid for atomic number  37.
 Defaulting to unpruned grid for atomic number  37.
 Defaulting to unpruned grid for atomic number  37.
 Defaulting to unpruned grid for atomic number  37.
 Defaulting to unpruned grid for atomic number  37.
 Defaulting to unpruned grid for atomic number  37.
 Defaulting to unpruned grid for atomic number  37.
 CoulSu:  requested number of processors reduced to:  28 ShMem   1 Linda.
 Inv3:  Mode=1 IEnd=     5378763.
 Iteration    1 A*A^-1 deviation from unit magnitude is 3.11D-15 for    586.
 Iteration    1 A*A^-1 deviation from orthogonality  is 1.44D-15 for   1225     33.
 Iteration    1 A^-1*A deviation from unit magnitude is 3.11D-15 for    586.
 Iteration    1 A^-1*A deviation from orthogonality  is 1.97D-15 for    722    425.
 CoulSu:  requested number of processors reduced to:  28 ShMem   1 Linda.
 CoulSu:  requested number of processors reduced to:  28 ShMem   1 Linda.
 CoulSu:  requested number of processors reduced to:  30 ShMem   1 Linda.
 CoulSu:  requested number of processors reduced to:  28 ShMem   1 Linda.
 Error on total polarization charges =  0.00760
 SCF Done:  E(RM062X) =  -1630.64591580     A.U. after   13 cycles
            NFock= 13  Conv=0.53D-08     -V/T= 2.0126

 **********************************************************************

            Population analysis using the SCF density.

 **********************************************************************

 Orbital symmetries:
       Occupied  (A) (A) (A) (A) (A) (A) (A) (A) (A) (A) (A) (A)
                 (A) (A) (A) (A) (A) (A) (A) (A) (A) (A) (A) (A)
                 (A) (A) (A) (A) (A) (A) (A) (A) (A) (A) (A) (A)
                 (A) (A) (A) (A) (A) (A) (A) (A)
       Virtual   (A) (A) (A) (A) (A) (A) (A) (A) (A) (A) (A) (A)
                 (A) (A) (A) (A) (A) (A) (A) (A) (A) (A) (A) (A)
                 (A) (A) (A) (A) (A) (A) (A) (A) (A) (A) (A) (A)
                 (A) (A) (A) (A) (A) (A) (A) (A) (A) (A) (A) (A)
                 (A) (A) (A) (A) (A) (A) (A) (A) (A) (A) (A) (A)
                 (A) (A) (A) (A) (A) (A) (A) (A) (A) (A) (A) (A)
                 (A) (A) (A) (A) (A) (A) (A) (A) (A) (A) (A) (A)
                 (A) (A) (A) (A) (A) (A)
 The electronic state is 1-A.
 Alpha  occ. eigenvalues -- -102.67300-102.62962-102.61636 -19.58799 -19.58445
 Alpha  occ. eigenvalues --  -10.70175 -10.66587  -9.84724  -9.79992  -9.78511
 Alpha  occ. eigenvalues --   -7.57412  -7.56729  -7.56679  -7.52692  -7.52003
 Alpha  occ. eigenvalues --   -7.51977  -7.51197  -7.50537  -7.50528  -1.33028
 Alpha  occ. eigenvalues --   -1.15022  -1.06606  -1.05427  -0.92355  -0.88252
 Alpha  occ. eigenvalues --   -0.70672  -0.67307  -0.67305  -0.67214  -0.60223
 Alpha  occ. eigenvalues --   -0.54219  -0.53538  -0.52972  -0.49358  -0.47967
 Alpha  occ. eigenvalues --   -0.42080  -0.40081  -0.38538  -0.37894  -0.35834
 Alpha  occ. eigenvalues --   -0.34390  -0.32745  -0.32361  -0.29782
 Alpha virt. eigenvalues --   -0.01199   0.00194   0.01792   0.01918   0.02796
 Alpha virt. eigenvalues --    0.04897   0.05319   0.05496   0.05782   0.05949
 Alpha virt. eigenvalues --    0.06711   0.07936   0.13416   0.16584   0.22288
 Alpha virt. eigenvalues --    0.32579   0.32822   0.32924   0.32955   0.33018
 Alpha virt. eigenvalues --    0.34700   0.38325   0.39740   0.39803   0.41190
 Alpha virt. eigenvalues --    0.45758   0.52849   0.54846   0.58071   0.58557
 Alpha virt. eigenvalues --    0.60141   0.61745   0.62687   0.65848   0.67242
 Alpha virt. eigenvalues --    0.74676   0.75590   0.77341   0.78523   0.80004
 Alpha virt. eigenvalues --    0.81170   0.81957   0.83161   0.83567   0.84530
 Alpha virt. eigenvalues --    0.85258   0.87378   0.88633   0.89620   0.91895
 Alpha virt. eigenvalues --    0.92579   0.95190   0.99252   1.00263   1.05288
 Alpha virt. eigenvalues --    1.06222   1.09188   1.14155   1.16907   1.22389
 Alpha virt. eigenvalues --    1.22898   1.26876   1.29872   1.32604   1.34442
 Alpha virt. eigenvalues --    1.38602   1.47117   1.55090   1.68349   1.70491
 Alpha virt. eigenvalues --    1.73010   1.78681   1.82451   2.00013   2.11241
 Alpha virt. eigenvalues --    2.12697   2.26456   2.28550   2.41213   2.73751
 Alpha virt. eigenvalues --    2.77098   2.78089   2.83179   3.03402   3.26880
 Alpha virt. eigenvalues --    3.38087   3.39237   3.65249   3.82857  19.27809
          Condensed to atoms (all electrons):
               1          2          3          4          5          6
     1  Cl  16.816703  -0.058314  -0.067390   0.001647   0.004769  -0.013363
     2  Cl  -0.058314  17.143681  -0.061204   0.002225  -0.000398  -0.032757
     3  Cl  -0.067390  -0.061204  17.094338   0.007841   0.002109  -0.024015
     4  O    0.001647   0.002225   0.007841   7.919985  -0.067946   0.666251
     5  O    0.004769  -0.000398   0.002109  -0.067946   8.020288   0.574095
     6  C   -0.013363  -0.032757  -0.024015   0.666251   0.574095   4.497308
     7  C    0.215420   0.196608   0.165566  -0.134725  -0.150726   0.006922
     8  Rb   0.019589   0.008202   0.003714   0.002832   0.054313  -0.009987
               7          8
     1  Cl   0.215420   0.019589
     2  Cl   0.196608   0.008202
     3  Cl   0.165566   0.003714
     4  O   -0.134725   0.002832
     5  O   -0.150726   0.054313
     6  C    0.006922  -0.009987
     7  C    5.828242   0.010295
     8  Rb   0.010295   8.036310
 Mulliken charges:
               1
     1  Cl   0.080939
     2  Cl  -0.198043
     3  Cl  -0.120960
     4  O   -0.398109
     5  O   -0.436504
     6  C    0.335547
     7  C   -0.137602
     8  Rb   0.874732
 Sum of Mulliken charges =  -0.00000
 Mulliken charges with hydrogens summed into heavy atoms:
               1
     1  Cl   0.080939
     2  Cl  -0.198043
     3  Cl  -0.120960
     4  O   -0.398109
     5  O   -0.436504
     6  C    0.335547
     7  C   -0.137602
     8  Rb   0.874732
 Electronic spatial extent (au):  <R**2>=           2107.8688
 Charge=             -0.0000 electrons
 Dipole moment (field-independent basis, Debye):
    X=            -19.7153    Y=             -7.0528    Z=             -0.2683  Tot=             20.9405
 Quadrupole moment (field-independent basis, Debye-Ang):
   XX=            -38.5713   YY=            -84.7655   ZZ=            -75.6333
   XY=             -3.9255   XZ=              0.0677   YZ=              2.1367
 Traceless Quadrupole moment (field-independent basis, Debye-Ang):
   XX=             27.7521   YY=            -18.4421   ZZ=             -9.3100
   XY=             -3.9255   XZ=              0.0677   YZ=              2.1367
 Octapole moment (field-independent basis, Debye-Ang**2):
  XXX=           -351.8675  YYY=            -39.9751  ZZZ=             -3.7119  XYY=            -68.6138
  XXY=            -14.3470  XXZ=             -1.8725  XZZ=            -60.0219  YZZ=             -1.8808
  YYZ=              6.2653  XYZ=              3.3321
 Hexadecapole moment (field-independent basis, Debye-Ang**3):
 XXXX=          -1609.5352 YYYY=           -594.1147 ZZZZ=           -395.2522 XXXY=              0.8167
 XXXZ=             -4.2036 YYYX=            -27.8093 YYYZ=             15.0753 ZZZX=             -1.6145
 ZZZY=              2.1520 XXYY=           -464.1265 XXZZ=           -418.2566 YYZZ=           -159.4477
 XXYZ=              5.8303 YYXZ=             10.5241 ZZXY=              2.7262
 N-N= 6.033955202597D+02 E-N=-5.073560527590D+03  KE= 1.610390955713D+03
 PrsmSu:  requested number of processors reduced to:  30 ShMem   1 Linda.
   1 Symmetry operations used in ECPInt.
 ECPInt:  NShTT=    1711 NPrTT=    7033 LenC2=    1670 LenP2D=    5053.
 LDataN:  DoStor=T MaxTD1= 7 Len=  274
 Number of processors reduced to  37 by ecpmxn.
 D1PCM: PCM CHGder 1st derivatives, ID1Alg=3 FixD1E=F DoIter=F DoCFld=F I1PDM=0.
 CoulSu:  requested number of processors reduced to:  48 ShMem   1 Linda.
 CoulSu:  requested number of processors reduced to:  48 ShMem   1 Linda.
 CoulSu:  requested number of processors reduced to:  47 ShMem   1 Linda.
 CoulSu:  requested number of processors reduced to:  29 ShMem   1 Linda.
 CoulSu:  requested number of processors reduced to:  30 ShMem   1 Linda.
 CoulSu:  requested number of processors reduced to:  48 ShMem   1 Linda.
 CoulSu:  requested number of processors reduced to:  48 ShMem   1 Linda.
 Calling FoFJK, ICntrl=      2127 FMM=F ISym2X=0 I1Cent= 0 IOpClX= 0 NMat=1 NMatS=1 NMatT=0.
 Defaulting to unpruned grid for atomic number  37.
 Defaulting to unpruned grid for atomic number  37.
 Defaulting to unpruned grid for atomic number  37.
 Defaulting to unpruned grid for atomic number  37.
 Defaulting to unpruned grid for atomic number  37.
 Defaulting to unpruned grid for atomic number  37.
 Defaulting to unpruned grid for atomic number  37.
 Defaulting to unpruned grid for atomic number  37.
 Defaulting to unpruned grid for atomic number  37.
 Defaulting to unpruned grid for atomic number  37.
 Defaulting to unpruned grid for atomic number  37.
 Defaulting to unpruned grid for atomic number  37.
 Defaulting to unpruned grid for atomic number  37.
 Defaulting to unpruned grid for atomic number  37.
 Defaulting to unpruned grid for atomic number  37.
 Defaulting to unpruned grid for atomic number  37.
 Defaulting to unpruned grid for atomic number  37.
 Defaulting to unpruned grid for atomic number  37.
 Defaulting to unpruned grid for atomic number  37.
 Defaulting to unpruned grid for atomic number  37.
 Defaulting to unpruned grid for atomic number  37.
 Defaulting to unpruned grid for atomic number  37.
 Defaulting to unpruned grid for atomic number  37.
 Defaulting to unpruned grid for atomic number  37.
 Defaulting to unpruned grid for atomic number  37.
 Defaulting to unpruned grid for atomic number  37.
 Defaulting to unpruned grid for atomic number  37.
 Defaulting to unpruned grid for atomic number  37.
 Defaulting to unpruned grid for atomic number  37.
 Defaulting to unpruned grid for atomic number  37.
 Defaulting to unpruned grid for atomic number  37.
 Defaulting to unpruned grid for atomic number  37.
 Defaulting to unpruned grid for atomic number  37.
 Defaulting to unpruned grid for atomic number  37.
 Defaulting to unpruned grid for atomic number  37.
 Defaulting to unpruned grid for atomic number  37.
 Defaulting to unpruned grid for atomic number  37.
 Defaulting to unpruned grid for atomic number  37.
 Defaulting to unpruned grid for atomic number  37.
 Defaulting to unpruned grid for atomic number  37.
 Defaulting to unpruned grid for atomic number  37.
 Defaulting to unpruned grid for atomic number  37.
 Defaulting to unpruned grid for atomic number  37.
 Defaulting to unpruned grid for atomic number  37.
 Defaulting to unpruned grid for atomic number  37.
 Defaulting to unpruned grid for atomic number  37.
 Defaulting to unpruned grid for atomic number  37.
 Defaulting to unpruned grid for atomic number  37.
 Defaulting to unpruned grid for atomic number  37.
 ***** Axes restored to original set *****
 -------------------------------------------------------------------
 Center     Atomic                   Forces (Hartrees/Bohr)
 Number     Number              X              Y              Z
 -------------------------------------------------------------------
      1       17          -0.019139559   -0.097773065    0.025983586
      2       17           0.001936357   -0.011588627    0.017393023
      3       17           0.002888865   -0.006984479    0.004063845
      4        8          -0.003655984   -0.029544706    0.012340528
      5        8           0.016737791    0.004365354    0.009097494
      6        6          -0.017011380   -0.009970026   -0.016493434
      7        6           0.021668307    0.145420662   -0.050139189
      8       37          -0.003424397    0.006074888   -0.002245852
 -------------------------------------------------------------------
 Cartesian Forces:  Max     0.145420662 RMS     0.039465642

 GradGradGradGradGradGradGradGradGradGradGradGradGradGradGradGradGradGrad
 Berny optimization.
 Using GEDIIS/GDIIS optimizer.
 FormGI is forming the generalized inverse of G from B-inverse, IUseBI=4.
 Internal  Forces:  Max     0.102328074 RMS     0.024294682
 Search for a local minimum.
 Step number   2 out of a maximum of   10
 All quantities printed in internal units (Hartrees-Bohrs-Radians)
 Mixed Optimization -- RFO/linear search
 Update second derivatives using D2CorX and points    1    2
 DE= -5.15D-02 DEPred=-5.27D-02 R= 9.76D-01
 TightC=F SS=  1.41D+00  RLast= 3.39D-01 DXNew= 5.0454D-01 1.0176D+00
 Trust test= 9.76D-01 RLast= 3.39D-01 DXMaxT set to 5.05D-01
 ITU=  1  0
 Use linear search instead of GDIIS.
     Eigenvalues ---    0.00230   0.01735   0.02756   0.03915   0.07526
     Eigenvalues ---    0.12892   0.15263   0.17433   0.23726   0.24648
     Eigenvalues ---    0.25000   0.25000   0.25000   0.25345   0.32489
     Eigenvalues ---    0.67100   0.77781   0.90435
 RFO step:  Lambda=-2.73499789D-02 EMin= 2.30207971D-03
 Quartic linear search produced a step of  1.07802.
 Iteration  1 RMS(Cart)=  0.12872310 RMS(Int)=  0.02079675
 Iteration  2 RMS(Cart)=  0.03261946 RMS(Int)=  0.00779886
 Iteration  3 RMS(Cart)=  0.00024670 RMS(Int)=  0.00779524
 Iteration  4 RMS(Cart)=  0.00000128 RMS(Int)=  0.00779524
 Iteration  5 RMS(Cart)=  0.00000001 RMS(Int)=  0.00779524
 Variable       Old X    -DE/DX   Delta X   Delta X   Delta X     New X
                                 (Linear)    (Quad)   (Total)
    R1        2.96681   0.10233   0.17151   0.03297   0.20448   3.17129
    R2        3.74902  -0.01921  -0.00905  -0.20211  -0.21117   3.53785
    R3        3.46523  -0.00523   0.05731  -0.11174  -0.05443   3.41081
    R4        2.32956  -0.03120  -0.07419   0.01260  -0.06159   2.26798
    R5        2.33365   0.00002   0.00614  -0.00760  -0.00147   2.33218
    R6        5.59068  -0.00729  -0.04053  -0.20552  -0.24605   5.34464
    R7        3.19308  -0.01677  -0.03144  -0.12504  -0.15647   3.03661
    A1        2.82265  -0.00243  -0.00344  -0.01337  -0.01681   2.80584
    A2        2.37655  -0.01224  -0.07777   0.03170  -0.06363   2.31293
    A3        2.03637  -0.00975  -0.05221   0.01322  -0.05795   1.97842
    A4        1.85457   0.02363   0.15128  -0.00452   0.12832   1.98289
    A5        1.93688  -0.00202  -0.00476  -0.02338  -0.03134   1.90554
    A6        1.96048   0.00668   0.05824  -0.04671   0.00437   1.96485
    A7        2.18323  -0.02975  -0.13243  -0.06908  -0.20717   1.97606
    A8        1.73897   0.01006   0.10090   0.03606   0.12611   1.86508
    A9        1.69376   0.01328   0.01773   0.09113   0.10222   1.79598
   A10        1.88305   0.01062   0.01863   0.05159   0.06176   1.94481
    D1        2.44197  -0.00490  -0.05520  -0.11910  -0.16661   2.27536
    D2       -0.90496   0.00590   0.05992   0.14247   0.19470  -0.71026
    D3       -2.98522   0.00475   0.03204   0.17028   0.20338  -2.78184
    D4        1.17137   0.01279   0.11010   0.15976   0.27553   1.44689
    D5       -0.61829  -0.00483  -0.00615   0.07832   0.07241  -0.54588
    D6        0.31507  -0.00229  -0.04183  -0.03494  -0.08035   0.23472
    D7       -1.81153   0.00576   0.03623  -0.04546  -0.00820  -1.81974
    D8        2.68199  -0.01186  -0.08001  -0.12690  -0.21132   2.47067
         Item               Value     Threshold  Converged?
 Maximum Force            0.102328     0.000450     NO 
 RMS     Force            0.024295     0.000300     NO 
 Maximum Displacement     0.320473     0.001800     NO 
 RMS     Displacement     0.139469     0.001200     NO 
 Predicted change in Energy=-2.304070D-02
 GradGradGradGradGradGradGradGradGradGradGradGradGradGradGradGradGradGrad

                          Input orientation:                          
 ---------------------------------------------------------------------
 Center     Atomic      Atomic             Coordinates (Angstroms)
 Number     Number       Type             X           Y           Z
 ---------------------------------------------------------------------
      1         17           0        6.468077    1.951583    7.837148
      2         17           0        6.477642    3.723360    5.546671
      3         17           0        5.670659    4.712943    8.209826
      4          8           0        8.471913    5.151698    7.616342
      5          8           0        9.069974    3.007783    7.723859
      6          6           0        8.309668    3.964366    7.550704
      7          6           0        6.768452    3.540109    7.386995
      8         37           0       10.088833    0.542649    8.664126
 ---------------------------------------------------------------------
                    Distance matrix (angstroms):
                    1          2          3          4          5
     1  Cl   0.000000
     2  Cl   2.895785   0.000000
     3  Cl   2.898254   2.953453   0.000000
     4  O    3.782175   3.209486   2.896852   0.000000
     5  O    2.810384   3.460113   3.833937   2.228365   0.000000
     6  C    2.743138   2.725903   2.821202   1.200162   1.234139
     7  C    1.678177   1.872149   1.804921   2.356183   2.386179
     8  Rb   3.972262   5.733773   6.092455   4.995559   2.828261
                    6          7          8
     6  C    0.000000
     7  C    1.606905   0.000000
     8  Rb   4.014135   4.651963   0.000000
 Stoichiometry    C2Cl3O2Rb
 Framework group  C1[X(C2Cl3O2Rb)]
 Deg. of freedom    18
 Full point group                 C1      NOp   1
 Largest Abelian subgroup         C1      NOp   1
 Largest concise Abelian subgroup C1      NOp   1
                         Standard orientation:                         
 ---------------------------------------------------------------------
 Center     Atomic      Atomic             Coordinates (Angstroms)
 Number     Number       Type             X           Y           Z
 ---------------------------------------------------------------------
      1         17           0        0.536895   -1.504024   -0.305137
      2         17           0        2.345691   -0.299416    1.608693
      3         17           0        2.816837   -0.011912   -1.292729
      4          8           0        1.328390    2.190803   -0.141936
      5          8           0       -0.538190    1.034883    0.239293
      6          6           0        0.672371    1.209356    0.074367
      7          6           0        1.507269   -0.157121   -0.059162
      8         37           0       -3.142963   -0.033998   -0.028491
 ---------------------------------------------------------------------
 Rotational constants (GHZ):           1.4536076           0.3293426           0.3208812
 Standard basis: def2SVP (5D, 7F)
 There are   143 symmetry adapted cartesian basis functions of A   symmetry.
 There are   134 symmetry adapted basis functions of A   symmetry.
   134 basis functions,   248 primitive gaussians,   143 cartesian basis functions
    44 alpha electrons       44 beta electrons
       nuclear repulsion energy       610.7201706443 Hartrees.
 NAtoms=    8 NActive=    8 NUniq=    8 SFac= 1.00D+00 NAtFMM=   60 NAOKFM=F Big=F
 Integral buffers will be    131072 words long.
 Raffenetti 2 integral format.
 Two-electron integral symmetry is turned on.
 ------------------------------------------------------------------------------
 Polarizable Continuum Model (PCM)
 =================================
 Model                : PCM.
 Atomic radii         : UFF (Universal Force Field).
 Polarization charges : Total charges.
 Charge compensation  : None.
 Solution method      : On-the-fly selection.
 Cavity type          : Scaled VdW (van der Waals Surface) (Alpha=1.100).
 Cavity algorithm     : GePol (No added spheres)
                        Default sphere list used, NSphG=    8.
                        Lebedev-Laikov grids with approx.  5.0 points / Ang**2.
                        Smoothing algorithm: York/Karplus (Gamma=1.0000).
                        Polarization charges: spherical gaussians, with
                                              point-specific exponents (IZeta= 3).
                        Self-potential: point-specific (ISelfS= 7).
                        Self-field    : sphere-specific E.n sum rule (ISelfD= 2).
 1st derivatives      : Analytical E(r).r(x)/FMM algorithm (CHGder, D1EAlg=3).
                        Cavity 1st derivative terms included.
 Solvent              : Water, Eps=  78.355300 Eps(inf)=   1.777849
 ------------------------------------------------------------------------------
 Spheres list:
 ISph  on   Nord     Re0    Alpha      Xe            Ye            Ze
    1  Cl      1    1.9735  1.100      0.536895     -1.504024     -0.305137
    2  Cl      2    1.9735  1.100      2.345691     -0.299416      1.608693
    3  Cl      3    1.9735  1.100      2.816837     -0.011912     -1.292729
    4   O      4    1.7500  1.100      1.328390      2.190803     -0.141936
    5   O      5    1.7500  1.100     -0.538190      1.034883      0.239293
    6   C      6    1.9255  1.100      0.672371      1.209356      0.074367
    7   C      7    1.9255  1.100      1.507269     -0.157121     -0.059162
    8  Rb      8    2.0570  1.100     -3.142963     -0.033998     -0.028491
 ------------------------------------------------------------------------------
 One-electron integrals computed using PRISM.
 PrsmSu:  requested number of processors reduced to:  30 ShMem   1 Linda.
   1 Symmetry operations used in ECPInt.
 ECPInt:  NShTT=    1711 NPrTT=    7033 LenC2=    1671 LenP2D=    5081.
 LDataN:  DoStor=T MaxTD1= 6 Len=  172
 Number of processors reduced to  35 by ecpmxn.
 NBasis=   134 RedAO= T EigKep=  3.03D-03  NBF=   134
 NBsUse=   134 1.00D-06 EigRej= -1.00D+00 NBFU=   134
 Defaulting to unpruned grid for atomic number  37.
 Initial guess from the checkpoint file:  "/home/zz1/proj/gauss/new/chk/Rb-UPOKUI-15/153.chk"
 B after Tr=    -0.000000   -0.000000    0.000000
         Rot=    0.993714   -0.111779   -0.005322    0.003018 Ang= -12.85 deg.
 ExpMin= 1.38D-02 ExpMax= 1.04D+04 ExpMxC= 1.57D+03 IAcc=3 IRadAn=         5 AccDes= 0.00D+00
 Harris functional with IExCor= 1009 and IRadAn=       5 diagonalized for initial guess.
 HarFok:  IExCor= 1009 AccDes= 0.00D+00 IRadAn=         5 IDoV= 1 UseB2=F ITyADJ=14
 ICtDFT=  3500011 ScaDFX=  1.000000  1.000000  1.000000  1.000000
 Defaulting to unpruned grid for atomic number  37.
 FoFCou: FMM=F IPFlag=           0 FMFlag=      100000 FMFlg1=           0
         NFxFlg=           0 DoJE=T BraDBF=F KetDBF=T FulRan=T
         wScrn=  0.000000 ICntrl=       500 IOpCl=  0 I1Cent=   200000004 NGrid=           0
         NMat0=    1 NMatS0=      1 NMatT0=    0 NMatD0=    1 NMtDS0=    0 NMtDT0=    0
 Petite list used in FoFCou.
 Keep R1 ints in memory in canonical form, NReq=88330718.
 Requested convergence on RMS density matrix=1.00D-08 within 128 cycles.
 Requested convergence on MAX density matrix=1.00D-06.
 Requested convergence on             energy=1.00D-06.
 No special actions if energy rises.
 Defaulting to unpruned grid for atomic number  37.
 Defaulting to unpruned grid for atomic number  37.
 Defaulting to unpruned grid for atomic number  37.
 Defaulting to unpruned grid for atomic number  37.
 Defaulting to unpruned grid for atomic number  37.
 Defaulting to unpruned grid for atomic number  37.
 Defaulting to unpruned grid for atomic number  37.
 Defaulting to unpruned grid for atomic number  37.
 Defaulting to unpruned grid for atomic number  37.
 Defaulting to unpruned grid for atomic number  37.
 Defaulting to unpruned grid for atomic number  37.
 Defaulting to unpruned grid for atomic number  37.
 Defaulting to unpruned grid for atomic number  37.
 Defaulting to unpruned grid for atomic number  37.
 Defaulting to unpruned grid for atomic number  37.
 Defaulting to unpruned grid for atomic number  37.
 Defaulting to unpruned grid for atomic number  37.
 Defaulting to unpruned grid for atomic number  37.
 Defaulting to unpruned grid for atomic number  37.
 Defaulting to unpruned grid for atomic number  37.
 Defaulting to unpruned grid for atomic number  37.
 Defaulting to unpruned grid for atomic number  37.
 Defaulting to unpruned grid for atomic number  37.
 Defaulting to unpruned grid for atomic number  37.
 Defaulting to unpruned grid for atomic number  37.
 Defaulting to unpruned grid for atomic number  37.
 Defaulting to unpruned grid for atomic number  37.
 Defaulting to unpruned grid for atomic number  37.
 Defaulting to unpruned grid for atomic number  37.
 Defaulting to unpruned grid for atomic number  37.
 Defaulting to unpruned grid for atomic number  37.
 Defaulting to unpruned grid for atomic number  37.
 Defaulting to unpruned grid for atomic number  37.
 Defaulting to unpruned grid for atomic number  37.
 Defaulting to unpruned grid for atomic number  37.
 Defaulting to unpruned grid for atomic number  37.
 Defaulting to unpruned grid for atomic number  37.
 Defaulting to unpruned grid for atomic number  37.
 Defaulting to unpruned grid for atomic number  37.
 Defaulting to unpruned grid for atomic number  37.
 Defaulting to unpruned grid for atomic number  37.
 Defaulting to unpruned grid for atomic number  37.
 Defaulting to unpruned grid for atomic number  37.
 Defaulting to unpruned grid for atomic number  37.
 Defaulting to unpruned grid for atomic number  37.
 Defaulting to unpruned grid for atomic number  37.
 Defaulting to unpruned grid for atomic number  37.
 Defaulting to unpruned grid for atomic number  37.
 Defaulting to unpruned grid for atomic number  37.
 CoulSu:  requested number of processors reduced to:  28 ShMem   1 Linda.
 Inv3:  Mode=1 IEnd=     5140443.
 Iteration    1 A*A^-1 deviation from unit magnitude is 3.11D-15 for    612.
 Iteration    1 A*A^-1 deviation from orthogonality  is 2.19D-15 for    361    222.
 Iteration    1 A^-1*A deviation from unit magnitude is 3.11D-15 for    612.
 Iteration    1 A^-1*A deviation from orthogonality  is 2.17D-15 for    838    355.
 CoulSu:  requested number of processors reduced to:  28 ShMem   1 Linda.
 CoulSu:  requested number of processors reduced to:  28 ShMem   1 Linda.
 CoulSu:  requested number of processors reduced to:  30 ShMem   1 Linda.
 CoulSu:  requested number of processors reduced to:  28 ShMem   1 Linda.
 Error on total polarization charges =  0.00784
 SCF Done:  E(RM062X) =  -1630.67393576     A.U. after   14 cycles
            NFock= 14  Conv=0.31D-08     -V/T= 2.0125

 **********************************************************************

            Population analysis using the SCF density.

 **********************************************************************

 Orbital symmetries:
       Occupied  (A) (A) (A) (A) (A) (A) (A) (A) (A) (A) (A) (A)
                 (A) (A) (A) (A) (A) (A) (A) (A) (A) (A) (A) (A)
                 (A) (A) (A) (A) (A) (A) (A) (A) (A) (A) (A) (A)
                 (A) (A) (A) (A) (A) (A) (A) (A)
       Virtual   (A) (A) (A) (A) (A) (A) (A) (A) (A) (A) (A) (A)
                 (A) (A) (A) (A) (A) (A) (A) (A) (A) (A) (A) (A)
                 (A) (A) (A) (A) (A) (A) (A) (A) (A) (A) (A) (A)
                 (A) (A) (A) (A) (A) (A) (A) (A) (A) (A) (A) (A)
                 (A) (A) (A) (A) (A) (A) (A) (A) (A) (A) (A) (A)
                 (A) (A) (A) (A) (A) (A) (A) (A) (A) (A) (A) (A)
                 (A) (A) (A) (A) (A) (A) (A) (A) (A) (A) (A) (A)
                 (A) (A) (A) (A) (A) (A)
 The electronic state is 1-A.
 Alpha  occ. eigenvalues -- -102.65562-102.64259-102.63618 -19.57796 -19.57350
 Alpha  occ. eigenvalues --  -10.70299 -10.65081  -9.82764  -9.81289  -9.80589
 Alpha  occ. eigenvalues --   -7.55467  -7.54772  -7.54730  -7.54004  -7.53292
 Alpha  occ. eigenvalues --   -7.53290  -7.53260  -7.52592  -7.52581  -1.32651
 Alpha  occ. eigenvalues --   -1.15951  -1.06418  -1.02994  -0.92725  -0.90782
 Alpha  occ. eigenvalues --   -0.72191  -0.66986  -0.66973  -0.66917  -0.59542
 Alpha  occ. eigenvalues --   -0.54034  -0.53704  -0.53451  -0.48907  -0.47749
 Alpha  occ. eigenvalues --   -0.41285  -0.40320  -0.40076  -0.38405  -0.36886
 Alpha  occ. eigenvalues --   -0.35898  -0.32360  -0.31589  -0.30669
 Alpha virt. eigenvalues --   -0.01151   0.01684   0.01759   0.02639   0.02984
 Alpha virt. eigenvalues --    0.04504   0.05307   0.05446   0.05829   0.06163
 Alpha virt. eigenvalues --    0.06764   0.08117   0.12872   0.15620   0.24151
 Alpha virt. eigenvalues --    0.32669   0.32996   0.33101   0.33114   0.33840
 Alpha virt. eigenvalues --    0.36087   0.39019   0.39728   0.40076   0.44626
 Alpha virt. eigenvalues --    0.47991   0.51316   0.53172   0.56133   0.58416
 Alpha virt. eigenvalues --    0.60500   0.61178   0.62479   0.66228   0.69472
 Alpha virt. eigenvalues --    0.77298   0.77772   0.78894   0.79546   0.79908
 Alpha virt. eigenvalues --    0.81409   0.82422   0.83203   0.83805   0.84199
 Alpha virt. eigenvalues --    0.84481   0.86092   0.88865   0.89317   0.90064
 Alpha virt. eigenvalues --    0.91821   0.93728   0.96905   0.99782   1.03007
 Alpha virt. eigenvalues --    1.08185   1.10862   1.13551   1.18817   1.22964
 Alpha virt. eigenvalues --    1.24014   1.28465   1.30050   1.34346   1.36585
 Alpha virt. eigenvalues --    1.39774   1.47070   1.54832   1.65525   1.69391
 Alpha virt. eigenvalues --    1.77597   1.79026   1.84474   2.03624   2.14656
 Alpha virt. eigenvalues --    2.19433   2.24830   2.28326   2.43733   2.74076
 Alpha virt. eigenvalues --    2.76910   2.78165   2.85351   3.08061   3.28888
 Alpha virt. eigenvalues --    3.40652   3.46893   3.69325   3.84904  19.28419
          Condensed to atoms (all electrons):
               1          2          3          4          5          6
     1  Cl  16.924838  -0.061587  -0.056255   0.002470   0.006196  -0.026209
     2  Cl  -0.061587  17.062989  -0.054876   0.001773   0.000843  -0.023305
     3  Cl  -0.056255  -0.054876  16.994765   0.006009   0.001309  -0.030498
     4  O    0.002470   0.001773   0.006009   7.908681  -0.084311   0.708114
     5  O    0.006196   0.000843   0.001309  -0.084311   8.024907   0.609342
     6  C   -0.026209  -0.023305  -0.030498   0.708114   0.609342   4.519213
     7  C    0.182461   0.192707   0.211497  -0.169545  -0.164197  -0.040905
     8  Rb   0.024475   0.007509   0.004447   0.004581   0.054096  -0.010527
               7          8
     1  Cl   0.182461   0.024475
     2  Cl   0.192707   0.007509
     3  Cl   0.211497   0.004447
     4  O   -0.169545   0.004581
     5  O   -0.164197   0.054096
     6  C   -0.040905  -0.010527
     7  C    5.902103   0.013595
     8  Rb   0.013595   8.044084
 Mulliken charges:
               1
     1  Cl   0.003610
     2  Cl  -0.126054
     3  Cl  -0.076398
     4  O   -0.377772
     5  O   -0.448186
     6  C    0.294775
     7  C   -0.127715
     8  Rb   0.857739
 Sum of Mulliken charges =  -0.00000
 Mulliken charges with hydrogens summed into heavy atoms:
               1
     1  Cl   0.003610
     2  Cl  -0.126054
     3  Cl  -0.076398
     4  O   -0.377772
     5  O   -0.448186
     6  C    0.294775
     7  C   -0.127715
     8  Rb   0.857739
 Electronic spatial extent (au):  <R**2>=           2023.9593
 Charge=             -0.0000 electrons
 Dipole moment (field-independent basis, Debye):
    X=            -17.3709    Y=             -6.1791    Z=             -0.8629  Tot=             18.4573
 Quadrupole moment (field-independent basis, Debye-Ang):
   XX=            -37.7934   YY=            -86.4862   ZZ=            -73.6610
   XY=             -2.7921   XZ=              0.6636   YZ=              0.4434
 Traceless Quadrupole moment (field-independent basis, Debye-Ang):
   XX=             28.1868   YY=            -20.5060   ZZ=             -7.6808
   XY=             -2.7921   XZ=              0.6636   YZ=              0.4434
 Octapole moment (field-independent basis, Debye-Ang**2):
  XXX=           -314.7447  YYY=            -35.9061  ZZZ=             -2.5929  XYY=            -66.5925
  XXY=            -11.6396  XXZ=             -4.0887  XZZ=            -52.1109  YZZ=             -0.0339
  YYZ=              0.1783  XYZ=              1.8393
 Hexadecapole moment (field-independent basis, Debye-Ang**3):
 XXXX=          -1556.4158 YYYY=           -565.7759 ZZZZ=           -394.9569 XXXY=              1.3794
 XXXZ=             -3.1140 YYYX=            -24.0455 YYYZ=              4.9595 ZZZX=              3.7294
 ZZZY=             -1.5997 XXYY=           -438.1632 XXZZ=           -389.4009 YYZZ=           -151.4090
 XXYZ=              0.5876 YYXZ=              5.1317 ZZXY=              4.1532
 N-N= 6.107201706443D+02 E-N=-5.088042796689D+03  KE= 1.610518075939D+03
 PrsmSu:  requested number of processors reduced to:  30 ShMem   1 Linda.
   1 Symmetry operations used in ECPInt.
 ECPInt:  NShTT=    1711 NPrTT=    7033 LenC2=    1671 LenP2D=    5081.
 LDataN:  DoStor=T MaxTD1= 7 Len=  274
 Number of processors reduced to  37 by ecpmxn.
 D1PCM: PCM CHGder 1st derivatives, ID1Alg=3 FixD1E=F DoIter=F DoCFld=F I1PDM=0.
 CoulSu:  requested number of processors reduced to:  48 ShMem   1 Linda.
 CoulSu:  requested number of processors reduced to:  48 ShMem   1 Linda.
 CoulSu:  requested number of processors reduced to:  47 ShMem   1 Linda.
 CoulSu:  requested number of processors reduced to:  29 ShMem   1 Linda.
 CoulSu:  requested number of processors reduced to:  30 ShMem   1 Linda.
 CoulSu:  requested number of processors reduced to:  48 ShMem   1 Linda.
 CoulSu:  requested number of processors reduced to:  48 ShMem   1 Linda.
 Calling FoFJK, ICntrl=      2127 FMM=F ISym2X=0 I1Cent= 0 IOpClX= 0 NMat=1 NMatS=1 NMatT=0.
 Defaulting to unpruned grid for atomic number  37.
 Defaulting to unpruned grid for atomic number  37.
 Defaulting to unpruned grid for atomic number  37.
 Defaulting to unpruned grid for atomic number  37.
 Defaulting to unpruned grid for atomic number  37.
 Defaulting to unpruned grid for atomic number  37.
 Defaulting to unpruned grid for atomic number  37.
 Defaulting to unpruned grid for atomic number  37.
 Defaulting to unpruned grid for atomic number  37.
 Defaulting to unpruned grid for atomic number  37.
 Defaulting to unpruned grid for atomic number  37.
 Defaulting to unpruned grid for atomic number  37.
 Defaulting to unpruned grid for atomic number  37.
 Defaulting to unpruned grid for atomic number  37.
 Defaulting to unpruned grid for atomic number  37.
 Defaulting to unpruned grid for atomic number  37.
 Defaulting to unpruned grid for atomic number  37.
 Defaulting to unpruned grid for atomic number  37.
 Defaulting to unpruned grid for atomic number  37.
 Defaulting to unpruned grid for atomic number  37.
 Defaulting to unpruned grid for atomic number  37.
 Defaulting to unpruned grid for atomic number  37.
 Defaulting to unpruned grid for atomic number  37.
 Defaulting to unpruned grid for atomic number  37.
 Defaulting to unpruned grid for atomic number  37.
 Defaulting to unpruned grid for atomic number  37.
 Defaulting to unpruned grid for atomic number  37.
 Defaulting to unpruned grid for atomic number  37.
 Defaulting to unpruned grid for atomic number  37.
 Defaulting to unpruned grid for atomic number  37.
 Defaulting to unpruned grid for atomic number  37.
 Defaulting to unpruned grid for atomic number  37.
 Defaulting to unpruned grid for atomic number  37.
 Defaulting to unpruned grid for atomic number  37.
 Defaulting to unpruned grid for atomic number  37.
 Defaulting to unpruned grid for atomic number  37.
 Defaulting to unpruned grid for atomic number  37.
 Defaulting to unpruned grid for atomic number  37.
 Defaulting to unpruned grid for atomic number  37.
 Defaulting to unpruned grid for atomic number  37.
 Defaulting to unpruned grid for atomic number  37.
 Defaulting to unpruned grid for atomic number  37.
 Defaulting to unpruned grid for atomic number  37.
 Defaulting to unpruned grid for atomic number  37.
 Defaulting to unpruned grid for atomic number  37.
 Defaulting to unpruned grid for atomic number  37.
 Defaulting to unpruned grid for atomic number  37.
 Defaulting to unpruned grid for atomic number  37.
 Defaulting to unpruned grid for atomic number  37.
 ***** Axes restored to original set *****
 -------------------------------------------------------------------
[...]
 Calling FoFJK, ICntrl=      2127 FMM=F ISym2X=0 I1Cent= 0 IOpClX= 0 NMat=1 NMatS=1 NMatT=0.
 Defaulting to unpruned grid for atomic number  37.
 Defaulting to unpruned grid for atomic number  37.
 Defaulting to unpruned grid for atomic number  37.
 Defaulting to unpruned grid for atomic number  37.
 Defaulting to unpruned grid for atomic number  37.
 Defaulting to unpruned grid for atomic number  37.
 Defaulting to unpruned grid for atomic number  37.
 Defaulting to unpruned grid for atomic number  37.
 Defaulting to unpruned grid for atomic number  37.
 Defaulting to unpruned grid for atomic number  37.
 Defaulting to unpruned grid for atomic number  37.
 Defaulting to unpruned grid for atomic number  37.
 Defaulting to unpruned grid for atomic number  37.
 Defaulting to unpruned grid for atomic number  37.
 Defaulting to unpruned grid for atomic number  37.
 Defaulting to unpruned grid for atomic number  37.
 Defaulting to unpruned grid for atomic number  37.
 Defaulting to unpruned grid for atomic number  37.
 Defaulting to unpruned grid for atomic number  37.
 Defaulting to unpruned grid for atomic number  37.
 Defaulting to unpruned grid for atomic number  37.
 Defaulting to unpruned grid for atomic number  37.
 Defaulting to unpruned grid for atomic number  37.
 Defaulting to unpruned grid for atomic number  37.
 Defaulting to unpruned grid for atomic number  37.
 Defaulting to unpruned grid for atomic number  37.
 Defaulting to unpruned grid for atomic number  37.
 Defaulting to unpruned grid for atomic number  37.
 Defaulting to unpruned grid for atomic number  37.
 Defaulting to unpruned grid for atomic number  37.
 Defaulting to unpruned grid for atomic number  37.
 Defaulting to unpruned grid for atomic number  37.
 Defaulting to unpruned grid for atomic number  37.
 Defaulting to unpruned grid for atomic number  37.
 Defaulting to unpruned grid for atomic number  37.
 Defaulting to unpruned grid for atomic number  37.
 Defaulting to unpruned grid for atomic number  37.
 Defaulting to unpruned grid for atomic number  37.
 Defaulting to unpruned grid for atomic number  37.
 Defaulting to unpruned grid for atomic number  37.
 Defaulting to unpruned grid for atomic number  37.
 Defaulting to unpruned grid for atomic number  37.
 Defaulting to unpruned grid for atomic number  37.
 Defaulting to unpruned grid for atomic number  37.
 Defaulting to unpruned grid for atomic number  37.
 Defaulting to unpruned grid for atomic number  37.
 Defaulting to unpruned grid for atomic number  37.
 Defaulting to unpruned grid for atomic number  37.
 Defaulting to unpruned grid for atomic number  37.
 ***** Axes restored to original set *****
 -------------------------------------------------------------------
 Center     Atomic                   Forces (Hartrees/Bohr)
 Number     Number              X              Y              Z
 -------------------------------------------------------------------
      1       17           0.001448958    0.002395042   -0.001205993
      2       17           0.000656054   -0.000348463    0.000466354
      3       17           0.000454399   -0.000166257    0.000076290
      4        8          -0.000445833    0.000958146   -0.000774837
      5        8           0.001421930   -0.000904294   -0.001151681
      6        6          -0.001795817   -0.001099174    0.002257502
      7        6          -0.000607631   -0.001346008    0.000441339
      8       37          -0.001132060    0.000511008   -0.000108974
 -------------------------------------------------------------------
 Cartesian Forces:  Max     0.002395042 RMS     0.001111349

 GradGradGradGradGradGradGradGradGradGradGradGradGradGradGradGradGradGrad
 Berny optimization.
 Using GEDIIS/GDIIS optimizer.
 FormGI is forming the generalized inverse of G from B-inverse, IUseBI=4.
 Internal  Forces:  Max     0.004611436 RMS     0.001567323
 Search for a local minimum.
 Step number  10 out of a maximum of   10
 All quantities printed in internal units (Hartrees-Bohrs-Radians)
 Mixed Optimization -- RFO/linear search
 Update second derivatives using D2CorX and points    8    9   10
 DE= -3.70D-04 DEPred=-3.71D-04 R= 9.97D-01
 TightC=F SS=  1.41D+00  RLast= 9.68D-02 DXNew= 3.5276D+00 2.9045D-01
 Trust test= 9.97D-01 RLast= 9.68D-02 DXMaxT set to 2.10D+00
 ITU=  1  1  1  1  1  1  1  1  1  0
 Use linear search instead of GDIIS.
     Eigenvalues ---    0.00110   0.02316   0.03290   0.06440   0.08806
     Eigenvalues ---    0.12182   0.14245   0.16411   0.19515   0.22467
     Eigenvalues ---    0.24928   0.25339   0.27652   0.29694   0.41453
     Eigenvalues ---    0.60133   0.83982   0.99113
 RFO step:  Lambda=-5.20416472D-04 EMin= 1.09670781D-03
 Quartic linear search produced a step of -0.02134.
 Iteration  1 RMS(Cart)=  0.17550573 RMS(Int)=  0.00951332
 Iteration  2 RMS(Cart)=  0.01090532 RMS(Int)=  0.00003118
 Iteration  3 RMS(Cart)=  0.00003674 RMS(Int)=  0.00001957
 Iteration  4 RMS(Cart)=  0.00000000 RMS(Int)=  0.00001957
 Variable       Old X    -DE/DX   Delta X   Delta X   Delta X     New X
                                 (Linear)    (Quad)   (Total)
    R1        3.40620  -0.00287   0.00018   0.00376   0.00394   3.41014
    R2        3.38307  -0.00045   0.00024  -0.00417  -0.00393   3.37914
    R3        3.34595  -0.00041   0.00034  -0.01304  -0.01270   3.33326
    R4        2.30849   0.00080  -0.00031   0.00617   0.00586   2.31435
    R5        2.34448   0.00052  -0.00010   0.00430   0.00420   2.34868
    R6        5.07644  -0.00074  -0.00042   0.03380   0.03338   5.10982
    R7        3.03603  -0.00192  -0.00003  -0.00145  -0.00147   3.03456
    A1        2.54662  -0.00461   0.00005  -0.07059  -0.07054   2.47608
    A2        2.29752   0.00225   0.00031  -0.00405  -0.00374   2.29378
    A3        2.01631   0.00074  -0.00026   0.00762   0.00736   2.02368
    A4        1.96889  -0.00301  -0.00009  -0.00339  -0.00348   1.96541
    A5        1.89299   0.00063  -0.00006   0.00111   0.00103   1.89402
    A6        1.89228   0.00110  -0.00015   0.00271   0.00259   1.89487
    A7        1.93146  -0.00237   0.00035  -0.01921  -0.01885   1.91261
    A8        1.90174   0.00103   0.00009   0.00175   0.00178   1.90352
    A9        1.87646  -0.00073  -0.00023   0.00413   0.00387   1.88032
   A10        1.96746   0.00040  -0.00001   0.00951   0.00949   1.97695
    D1        2.62850   0.00086   0.00048   0.06899   0.06948   2.69798
    D2       -0.54783   0.00010  -0.00050   0.07612   0.07561  -0.47222
    D3       -2.42795  -0.00055   0.00016   0.18677   0.18695  -2.24100
    D4        1.79075   0.00047   0.00017   0.19374   0.19393   1.98467
    D5       -0.30548  -0.00057   0.00022   0.18303   0.18322  -0.12226
    D6        0.74241   0.00004   0.00094   0.18108   0.18204   0.92445
    D7       -1.32208   0.00105   0.00096   0.18805   0.18902  -1.13306
    D8        2.86488   0.00002   0.00100   0.17734   0.17831   3.04319
         Item               Value     Threshold  Converged?
 Maximum Force            0.004611     0.000450     NO 
 RMS     Force            0.001567     0.000300     NO 
 Maximum Displacement     0.461002     0.001800     NO 
 RMS     Displacement     0.178894     0.001200     NO 
 Predicted change in Energy=-3.220427D-04
 Optimization stopped.
    -- Number of steps exceeded,  NStep=  10
    -- Flag reset to prevent archiving.
                           ----------------------------
                           ! Non-Optimized Parameters !
                           ! (Angstroms and Degrees)  !
 --------------------------                            --------------------------
 ! Name  Definition              Value          Derivative Info.                !
 --------------------------------------------------------------------------------
 ! R1    R(1,7)                  1.8046         -DE/DX =   -0.0029              !
 ! R2    R(2,7)                  1.7882         -DE/DX =   -0.0005              !
 ! R3    R(3,7)                  1.7639         -DE/DX =   -0.0004              !
 ! R4    R(4,6)                  1.2247         -DE/DX =    0.0008              !
 ! R5    R(5,6)                  1.2429         -DE/DX =    0.0005              !
 ! R6    R(5,8)                  2.704          -DE/DX =   -0.0007              !
 ! R7    R(6,7)                  1.6058         -DE/DX =   -0.0019              !
 ! A1    A(6,5,8)              141.8691         -DE/DX =   -0.0046              !
 ! A2    A(4,6,5)              131.4239         -DE/DX =    0.0023              !
 ! A3    A(4,6,7)              115.9481         -DE/DX =    0.0007              !
 ! A4    A(5,6,7)              112.6099         -DE/DX =   -0.003               !
 ! A5    A(1,7,2)              108.5192         -DE/DX =    0.0006              !
 ! A6    A(1,7,3)              108.5682         -DE/DX =    0.0011              !
 ! A7    A(1,7,6)              109.5847         -DE/DX =   -0.0024              !
 ! A8    A(2,7,3)              109.0636         -DE/DX =    0.001               !
 ! A9    A(2,7,6)              107.7347         -DE/DX =   -0.0007              !
 ! A10   A(3,7,6)              113.2709         -DE/DX =    0.0004              !
 ! D1    D(8,5,6,4)            154.5831         -DE/DX =    0.0009              !
 ! D2    D(8,5,6,7)            -27.0562         -DE/DX =    0.0001              !
 ! D3    D(4,6,7,1)           -128.3996         -DE/DX =   -0.0005              !
 ! D4    D(4,6,7,2)            113.7134         -DE/DX =    0.0005              !
 ! D5    D(4,6,7,3)             -7.0051         -DE/DX =   -0.0006              !
 ! D6    D(5,6,7,1)             52.9673         -DE/DX =    0.0                 !
 ! D7    D(5,6,7,2)            -64.9197         -DE/DX =    0.0011              !
 ! D8    D(5,6,7,3)            174.3618         -DE/DX =    0.0                 !
 --------------------------------------------------------------------------------
 GradGradGradGradGradGradGradGradGradGradGradGradGradGradGradGradGradGrad

                          Input orientation:                          
 ---------------------------------------------------------------------
 Center     Atomic      Atomic             Coordinates (Angstroms)
 Number     Number       Type             X           Y           Z
 ---------------------------------------------------------------------
      1         17           0        6.535886    2.000819    8.273127
      2         17           0        6.717963    3.243610    5.642577
      3         17           0        5.601452    4.715539    7.875692
      4          8           0        8.441677    5.278997    7.873140
      5          8           0        9.180701    3.168125    7.664450
      6          6           0        8.334854    4.075227    7.694711
      7          6           0        6.845640    3.548175    7.402098
      8         37           0        9.667048    0.563999    8.109877
 ---------------------------------------------------------------------
                    Distance matrix (angstroms):
                    1          2          3          4          5
     1  Cl   0.000000
     2  Cl   2.915043   0.000000
     3  Cl   2.898419   2.898271   0.000000
     4  O    3.812936   3.476981   2.895577   0.000000
     5  O    2.954341   3.187279   3.905142   2.246217   0.000000
     6  C    2.806068   2.741747   2.813226   1.221602   1.240648
     7  C    1.802485   1.790244   1.770603   2.401033   2.380289
     8  Rb   3.448953   4.686682   5.815428   4.877375   2.686338
                    6          7          8
     6  C    0.000000
     7  C    1.606600   0.000000
     8  Rb   3.778336   4.167326   0.000000
 Stoichiometry    C2Cl3O2Rb
 Framework group  C1[X(C2Cl3O2Rb)]
 Deg. of freedom    18
 Full point group                 C1      NOp   1
 Largest Abelian subgroup         C1      NOp   1
 Largest concise Abelian subgroup C1      NOp   1
                         Standard orientation:                         
 ---------------------------------------------------------------------
 Center     Atomic      Atomic             Coordinates (Angstroms)
 Number     Number       Type             X           Y           Z
 ---------------------------------------------------------------------
      1         17           0        0.318827   -1.319964   -0.815347
      2         17           0        1.533403   -0.557605    1.722584
      3         17           0        2.983459   -0.180959   -0.758434
      4          8           0        1.505642    2.267345   -0.304307
      5          8           0       -0.489921    1.347957    0.162538
      6          6           0        0.728656    1.354180   -0.070357
      7          6           0        1.382794   -0.111752   -0.004699
      8         37           0       -2.783816   -0.037352   -0.025544
 ---------------------------------------------------------------------
 Rotational constants (GHZ):           1.4210963           0.3976409           0.3804745

 **********************************************************************

            Population analysis using the SCF density.

 **********************************************************************

 Orbital symmetries:
       Occupied  (A) (A) (A) (A) (A) (A) (A) (A) (A) (A) (A) (A)
                 (A) (A) (A) (A) (A) (A) (A) (A) (A) (A) (A) (A)
                 (A) (A) (A) (A) (A) (A) (A) (A) (A) (A) (A) (A)
                 (A) (A) (A) (A) (A) (A) (A) (A)
       Virtual   (A) (A) (A) (A) (A) (A) (A) (A) (A) (A) (A) (A)
                 (A) (A) (A) (A) (A) (A) (A) (A) (A) (A) (A) (A)
                 (A) (A) (A) (A) (A) (A) (A) (A) (A) (A) (A) (A)
                 (A) (A) (A) (A) (A) (A) (A) (A) (A) (A) (A) (A)
                 (A) (A) (A) (A) (A) (A) (A) (A) (A) (A) (A) (A)
                 (A) (A) (A) (A) (A) (A) (A) (A) (A) (A) (A) (A)
                 (A) (A) (A) (A) (A) (A) (A) (A) (A) (A) (A) (A)
                 (A) (A) (A) (A) (A) (A)
 The electronic state is 1-A.
 Alpha  occ. eigenvalues -- -102.65491-102.65148-102.64696 -19.58274 -19.58126
 Alpha  occ. eigenvalues --  -10.71198 -10.65954  -9.82478  -9.82190  -9.81783
 Alpha  occ. eigenvalues --   -7.55181  -7.54904  -7.54498  -7.54482  -7.54468
 Alpha  occ. eigenvalues --   -7.54181  -7.54166  -7.53779  -7.53750  -1.32158
 Alpha  occ. eigenvalues --   -1.15611  -1.06228  -1.02803  -0.92576  -0.92287
 Alpha  occ. eigenvalues --   -0.72892  -0.66668  -0.66594  -0.66553  -0.59849
 Alpha  occ. eigenvalues --   -0.54309  -0.53864  -0.53472  -0.48989  -0.47876
 Alpha  occ. eigenvalues --   -0.41712  -0.41213  -0.40722  -0.38294  -0.37786
 Alpha  occ. eigenvalues --   -0.36457  -0.32728  -0.32057  -0.31541
 Alpha virt. eigenvalues --   -0.01111   0.01554   0.01825   0.02748   0.03445
 Alpha virt. eigenvalues --    0.04210   0.05402   0.05553   0.06024   0.06249
 Alpha virt. eigenvalues --    0.07027   0.08382   0.08754   0.15519   0.22822
 Alpha virt. eigenvalues --    0.31749   0.32964   0.33165   0.33266   0.34323
 Alpha virt. eigenvalues --    0.36434   0.38245   0.39463   0.40109   0.46510
 Alpha virt. eigenvalues --    0.50517   0.50831   0.53836   0.55864   0.57556
 Alpha virt. eigenvalues --    0.59405   0.62821   0.64238   0.65909   0.68254
 Alpha virt. eigenvalues --    0.75267   0.76654   0.79118   0.79437   0.80095
 Alpha virt. eigenvalues --    0.80742   0.82517   0.83061   0.83527   0.84205
 Alpha virt. eigenvalues --    0.84540   0.84828   0.86480   0.88884   0.91061
 Alpha virt. eigenvalues --    0.92404   0.95354   0.96450   0.98070   1.04039
 Alpha virt. eigenvalues --    1.08130   1.09487   1.13031   1.17693   1.22617
 Alpha virt. eigenvalues --    1.23408   1.30741   1.31826   1.32890   1.37646
 Alpha virt. eigenvalues --    1.40820   1.45614   1.54205   1.64720   1.70526
 Alpha virt. eigenvalues --    1.76999   1.78684   1.81261   2.02729   2.15599
 Alpha virt. eigenvalues --    2.17176   2.21126   2.26542   2.41922   2.73800
 Alpha virt. eigenvalues --    2.76475   2.77739   2.84339   3.06165   3.25058
 Alpha virt. eigenvalues --    3.36969   3.44563   3.66819   3.81281  19.29342
          Condensed to atoms (all electrons):
               1          2          3          4          5          6
     1  Cl  16.968951  -0.062633  -0.058647   0.001309   0.003213  -0.025495
     2  Cl  -0.062633  16.977469  -0.059711   0.000571   0.001694  -0.026365
     3  Cl  -0.058647  -0.059711  16.981639   0.006954   0.001928  -0.028273
     4  O    0.001309   0.000571   0.006954   7.910786  -0.081699   0.696002
     5  O    0.003213   0.001694   0.001928  -0.081699   8.063207   0.564250
     6  C   -0.025495  -0.026365  -0.028273   0.696002   0.564250   4.544082
     7  C    0.191613   0.207752   0.203291  -0.150613  -0.149657  -0.031631
     8  Rb   0.038423   0.018744   0.004165   0.004941   0.054564  -0.011085
               7          8
     1  Cl   0.191613   0.038423
     2  Cl   0.207752   0.018744
     3  Cl   0.203291   0.004165
     4  O   -0.150613   0.004941
     5  O   -0.149657   0.054564
     6  C   -0.031631  -0.011085
     7  C    5.845537   0.008852
     8  Rb   0.008852   8.063416
 Mulliken charges:
               1
     1  Cl  -0.056735
     2  Cl  -0.057521
     3  Cl  -0.051346
     4  O   -0.388250
     5  O   -0.457500
     6  C    0.318515
     7  C   -0.125144
     8  Rb   0.817980
 Sum of Mulliken charges =  -0.00000
 Mulliken charges with hydrogens summed into heavy atoms:
               1
     1  Cl  -0.056735
     2  Cl  -0.057521
     3  Cl  -0.051346
     4  O   -0.388250
     5  O   -0.457500
     6  C    0.318515
     7  C   -0.125144
     8  Rb   0.817980
 Electronic spatial extent (au):  <R**2>=           1841.2502
 Charge=             -0.0000 electrons
 Dipole moment (field-independent basis, Debye):
    X=            -14.6797    Y=             -6.4318    Z=              0.0226  Tot=             16.0270
 Quadrupole moment (field-independent basis, Debye-Ang):
   XX=            -45.9820   YY=            -89.4536   ZZ=            -73.0091
   XY=             -3.5876   XZ=              1.7468   YZ=              1.0086
 Traceless Quadrupole moment (field-independent basis, Debye-Ang):
   XX=             23.4996   YY=            -19.9720   ZZ=             -3.5275
   XY=             -3.5876   XZ=              1.7468   YZ=              1.0086
 Octapole moment (field-independent basis, Debye-Ang**2):
  XXX=           -242.9451  YYY=            -39.3380  ZZZ=              0.7526  XYY=            -61.2800
  XXY=            -14.9207  XXZ=             -0.9274  XZZ=            -44.9013  YZZ=             -1.6085
  YYZ=              2.6773  XYZ=              2.8575
 Hexadecapole moment (field-independent basis, Debye-Ang**3):
 XXXX=          -1379.0335 YYYY=           -618.0216 ZZZZ=           -380.7829 XXXY=            -11.1323
 XXXZ=             -2.7804 YYYX=            -31.4620 YYYZ=             11.2027 ZZZX=              7.5333
 ZZZY=             -3.7136 XXYY=           -397.2342 XXZZ=           -335.7696 YYZZ=           -153.6733
 XXYZ=              5.1173 YYXZ=             10.5643 ZZXY=              1.6901
 N-N= 6.170185193313D+02 E-N=-5.099449931001D+03  KE= 1.610355827926D+03


 A MAN IS NEVER SO BRILLIANT AS WHEN HE TAKES THE WORDS RIGHT OUT
 OF YOUR MOUTH. -- ARNOT SHEPPARD, JR.
 Error termination request processed by link 9999.
 Error termination via Lnk1e in /home/pub/g16/l9999.exe at Sun Jul  2 14:33:34 2023.
 Job cpu time:       0 days  0 hours 47 minutes 23.2 seconds.
 Elapsed time:       0 days  0 hours  1 minutes 11.2 seconds.
 File lengths (MBytes):  RWF=     42 Int=      0 D2E=      0 Chk=      4 Scr=      1
