 Entering Gaussian System, Link 0=g16
 Initial command:
 /home/pub/g16/l1.exe "/home/zz1/gauss/SCRDIR/Gau-943871.inp" -scrdir="/home/zz1/gauss/SCRDIR/"
 Entering Link 1 = /home/pub/g16/l1.exe PID=    943873.
  
 Copyright (c) 1988,1990,1992,1993,1995,1998,2003,2009,2016,
            Gaussian, Inc.  All Rights Reserved.
  
 This is part of the Gaussian(R) 16 program.  It is based on
 the Gaussian(R) 09 system (copyright 2009, Gaussian, Inc.),
 the Gaussian(R) 03 system (copyright 2003, Gaussian, Inc.),
 the Gaussian(R) 98 system (copyright 1998, Gaussian, Inc.),
 the Gaussian(R) 94 system (copyright 1995, Gaussian, Inc.),
 the Gaussian 92(TM) system (copyright 1992, Gaussian, Inc.),
 the Gaussian 90(TM) system (copyright 1990, Gaussian, Inc.),
 the Gaussian 88(TM) system (copyright 1988, Gaussian, Inc.),
 the Gaussian 86(TM) system (copyright 1986, Carnegie Mellon
 University), and the Gaussian 82(TM) system (copyright 1983,
 Carnegie Mellon University). Gaussian is a federally registered
 trademark of Gaussian, Inc.
  
 This software contains proprietary and confidential information,
 including trade secrets, belonging to Gaussian, Inc.
  
 This software is provided under written license and may be
 used, copied, transmitted, or stored only in accord with that
 written license.
  
 The following legend is applicable only to US Government
 contracts under FAR:
  
                    RESTRICTED RIGHTS LEGEND
  
 Use, reproduction and disclosure by the US Government is
 subject to restrictions as set forth in subparagraphs (a)
 and (c) of the Commercial Computer Software - Restricted
 Rights clause in FAR 52.227-19.
  
 Gaussian, Inc.
 340 Quinnipiac St., Bldg. 40, Wallingford CT 06492
  
  
 ---------------------------------------------------------------
 Warning -- This program may not be used in any manner that
 competes with the business of Gaussian, Inc. or will provide
 assistance to any competitor of Gaussian, Inc.  The licensee
 of this program is prohibited from giving any competitor of
 Gaussian, Inc. access to this program.  By using this program,
 the user acknowledges that Gaussian, Inc. is engaged in the
 business of creating and licensing software in the field of
 computational chemistry and represents and warrants to the
 licensee that it is not a competitor of Gaussian, Inc. and that
 it will not use this program in any manner prohibited above.
 ---------------------------------------------------------------
  

 Cite this work as:
 Gaussian 16, Revision A.03,
 M. J. Frisch, G. W. Trucks, H. B. Schlegel, G. E. Scuseria, 
 M. A. Robb, J. R. Cheeseman, G. Scalmani, V. Barone, 
 G. A. Petersson, H. Nakatsuji, X. Li, M. Caricato, A. V. Marenich, 
 J. Bloino, B. G. Janesko, R. Gomperts, B. Mennucci, H. P. Hratchian, 
 J. V. Ortiz, A. F. Izmaylov, J. L. Sonnenberg, D. Williams-Young, 
 F. Ding, F. Lipparini, F. Egidi, J. Goings, B. Peng, A. Petrone, 
 T. Henderson, D. Ranasinghe, V. G. Zakrzewski, J. Gao, N. Rega, 
 G. Zheng, W. Liang, M. Hada, M. Ehara, K. Toyota, R. Fukuda, 
 J. Hasegawa, M. Ishida, T. Nakajima, Y. Honda, O. Kitao, H. Nakai, 
 T. Vreven, K. Throssell, J. A. Montgomery, Jr., J. E. Peralta, 
 F. Ogliaro, M. J. Bearpark, J. J. Heyd, E. N. Brothers, K. N. Kudin, 
 V. N. Staroverov, T. A. Keith, R. Kobayashi, J. Normand, 
 K. Raghavachari, A. P. Rendell, J. C. Burant, S. S. Iyengar, 
 J. Tomasi, M. Cossi, J. M. Millam, M. Klene, C. Adamo, R. Cammi, 
 J. W. Ochterski, R. L. Martin, K. Morokuma, O. Farkas, 
 J. B. Foresman, and D. J. Fox, Gaussian, Inc., Wallingford CT, 2016.
 
 ******************************************
 Gaussian 16:  ES64L-G16RevA.03 25-Dec-2016
                 8-Apr-2023 
 ******************************************
 %chk=/home/zz1/proj/gauss/new/chk/Sr-UDIRAA-1/153.chk
 %CPU=0-48
 SetSPE:  set environment variable "MP_BIND" = "yes"
 SetSPE:  set environment variable "MP_BLIST" = "0,1,2,3,4,5,6,7,8,9,10,11,12,13,14,15,16,17,18,19,20,21,22,23,24,25,26,27,28,29,30,31,32,33,34,35,36,37,38,39,40,41,42,43,44,45,46,47,48"
 Will use up to   49 processors via shared memory.
 ----------------------------------------------------
 # M062X/Def2SVP opt(MaxCyc=10)/freq SCRF pop(Always)
 ----------------------------------------------------
 1/6=10,18=20,19=15,26=3,38=1/1,3;
 2/9=110,12=2,17=6,18=5,40=1/2;
 3/5=43,7=101,11=2,25=1,30=1,70=2201,71=1,74=-55/1,2,3;
 4//1;
 5/5=2,38=5/2;
 6/7=2,8=2,9=2,10=2,28=1/1;
 7//1,2,3,16;
 1/6=10,18=20,19=15,26=3/3(2);
 2/9=110/2;
 99//99;
 2/9=110/2;
 3/5=43,7=101,11=2,25=1,30=1,70=2205,71=1,74=-55/1,2,3;
 4/5=5,16=3,69=1/1;
 5/5=2,38=5/2;
 6/7=2,8=2,9=2,10=2,28=1/1;
 7//1,2,3,16;
 1/6=10,18=20,19=15,26=3/3(-6);
 2/9=110/2;
 6/7=2,8=2,9=2,10=2,19=2,28=1/1;
 99/9=1/99;
 -----------
 Sr-UDIRAA-1
 -----------
 Symbolic Z-matrix:
 Charge =  0 Multiplicity = 2
 F                     4.30738   6.07564   2.37578 
 B                     4.61142   5.86942   3.74438 
 F                     4.44192   7.01733   4.5071 
 F                     6.08784   5.42167   3.79462 
 Sr                    5.27092   2.98972   4.8619 
 F                     3.9123    4.88      4.32358 
 

 GradGradGradGradGradGradGradGradGradGradGradGradGradGradGradGradGradGrad
 Berny optimization.
 Initialization pass.
                           ----------------------------
                           !    Initial Parameters    !
                           ! (Angstroms and Degrees)  !
 --------------------------                            --------------------------
 ! Name  Definition              Value          Derivative Info.                !
 --------------------------------------------------------------------------------
 ! R1    R(1,2)                  1.4171         estimate D2E/DX2                !
 ! R2    R(2,3)                  1.3886         estimate D2E/DX2                !
 ! R3    R(2,4)                  1.5436         estimate D2E/DX2                !
 ! R4    R(2,5)                  3.1586         estimate D2E/DX2                !
 ! R5    R(2,6)                  1.3428         estimate D2E/DX2                !
 ! R6    R(4,5)                  2.7786         estimate D2E/DX2                !
 ! R7    R(5,6)                  2.3893         estimate D2E/DX2                !
 ! A1    A(1,2,3)              112.5819         estimate D2E/DX2                !
 ! A2    A(1,2,4)              106.1922         estimate D2E/DX2                !
 ! A3    A(1,2,5)              121.2779         estimate D2E/DX2                !
 ! A4    A(1,2,6)              114.3369         estimate D2E/DX2                !
 ! A5    A(3,2,4)              109.7953         estimate D2E/DX2                !
 ! A6    A(3,2,5)              125.7918         estimate D2E/DX2                !
 ! A7    A(3,2,6)              107.9772         estimate D2E/DX2                !
 ! A8    A(4,2,6)              105.6762         estimate D2E/DX2                !
 ! A9    A(4,5,6)               52.2806         estimate D2E/DX2                !
 ! D1    D(3,2,5,4)            -94.8615         estimate D2E/DX2                !
 ! D2    D(3,2,6,4)           -117.4426         estimate D2E/DX2                !
 ! D3    D(3,2,6,5)           -123.2195         estimate D2E/DX2                !
 ! D4    D(6,4,5,2)              3.1341         estimate D2E/DX2                !
 --------------------------------------------------------------------------------
 Trust Radius=3.00D-01 FncErr=1.00D-07 GrdErr=1.00D-06 EigMax=2.50D+02 EigMin=1.00D-04
 Number of steps in this run=     10 maximum allowed number of steps=    100.
 GradGradGradGradGradGradGradGradGradGradGradGradGradGradGradGradGradGrad

                          Input orientation:                          
 ---------------------------------------------------------------------
 Center     Atomic      Atomic             Coordinates (Angstroms)
 Number     Number       Type             X           Y           Z
 ---------------------------------------------------------------------
      1          9           0        4.307380    6.075640    2.375780
      2          5           0        4.611420    5.869420    3.744380
      3          9           0        4.441920    7.017330    4.507100
      4          9           0        6.087840    5.421670    3.794620
      5         38           0        5.270920    2.989720    4.861900
      6          9           0        3.912300    4.880000    4.323580
 ---------------------------------------------------------------------
                    Distance matrix (angstroms):
                    1          2          3          4          5
     1  F    0.000000
     2  B    1.417051   0.000000
     3  F    2.333968   1.388585   0.000000
     4  F    2.368717   1.543639   2.400586   0.000000
     5  Sr   4.078248   3.158554   4.127320   2.778637   0.000000
     6  F    2.319390   1.342830   2.209605   2.303515   2.389309
                    6
     6  F    0.000000
 Stoichiometry    BF4Sr(2)
 Framework group  C1[X(BF4Sr)]
 Deg. of freedom    12
 Full point group                 C1      NOp   1
 Largest Abelian subgroup         C1      NOp   1
 Largest concise Abelian subgroup C1      NOp   1
                         Standard orientation:                         
 ---------------------------------------------------------------------
 Center     Atomic      Atomic             Coordinates (Angstroms)
 Number     Number       Type             X           Y           Z
 ---------------------------------------------------------------------
      1          9           0       -2.274029    0.811399   -0.898296
      2          5           0       -1.535713   -0.033627   -0.032933
      3          9           0       -2.343905   -0.927765    0.656642
      4          9           0       -0.814967    0.896960    0.965742
      5         38           0        1.622675   -0.006256   -0.015547
      6          9           0       -0.565218   -0.735499   -0.640148
 ---------------------------------------------------------------------
 Rotational constants (GHZ):           4.8829603           0.9589734           0.9492837
 Standard basis: def2SVP (5D, 7F)
 There are   100 symmetry adapted cartesian basis functions of A   symmetry.
 There are    93 symmetry adapted basis functions of A   symmetry.
    93 basis functions,   179 primitive gaussians,   100 cartesian basis functions
    26 alpha electrons       25 beta electrons
       nuclear repulsion energy       246.5836256876 Hartrees.
 NAtoms=    6 NActive=    6 NUniq=    6 SFac= 1.00D+00 NAtFMM=   60 NAOKFM=F Big=F
 Integral buffers will be    131072 words long.
 Raffenetti 2 integral format.
 Two-electron integral symmetry is turned on.
 ------------------------------------------------------------------------------
 Polarizable Continuum Model (PCM)
 =================================
 Model                : PCM.
 Atomic radii         : UFF (Universal Force Field).
 Polarization charges : Total charges.
 Charge compensation  : None.
 Solution method      : On-the-fly selection.
 Cavity type          : Scaled VdW (van der Waals Surface) (Alpha=1.100).
 Cavity algorithm     : GePol (No added spheres)
                        Default sphere list used, NSphG=    6.
                        Lebedev-Laikov grids with approx.  5.0 points / Ang**2.
                        Smoothing algorithm: York/Karplus (Gamma=1.0000).
                        Polarization charges: spherical gaussians, with
                                              point-specific exponents (IZeta= 3).
                        Self-potential: point-specific (ISelfS= 7).
                        Self-field    : sphere-specific E.n sum rule (ISelfD= 2).
 1st derivatives      : Analytical E(r).r(x)/FMM algorithm (CHGder, D1EAlg=3).
                        Cavity 1st derivative terms included.
 Solvent              : Water, Eps=  78.355300 Eps(inf)=   1.777849
 ------------------------------------------------------------------------------
 Spheres list:
 ISph  on   Nord     Re0    Alpha      Xe            Ye            Ze
    1   F      1    1.6820  1.100     -2.274029      0.811399     -0.898296
    2   B      2    2.0415  1.100     -1.535713     -0.033627     -0.032933
    3   F      3    1.6820  1.100     -2.343905     -0.927765      0.656642
    4   F      4    1.6820  1.100     -0.814967      0.896960      0.965742
    5  Sr      5    1.8205  1.100      1.622675     -0.006256     -0.015547
    6   F      6    1.6820  1.100     -0.565218     -0.735499     -0.640148
 ------------------------------------------------------------------------------
 One-electron integrals computed using PRISM.
 PrsmSu:  requested number of processors reduced to:  30 ShMem   1 Linda.
   1 Symmetry operations used in ECPInt.
 ECPInt:  NShTT=     780 NPrTT=    3083 LenC2=     775 LenP2D=    2572.
 LDataN:  DoStor=T MaxTD1= 6 Len=  172
 Number of processors reduced to  27 by ecpmxn.
 NBasis=    93 RedAO= T EigKep=  1.61D-02  NBF=    93
 NBsUse=    93 1.00D-06 EigRej= -1.00D+00 NBFU=    93
 Defaulting to unpruned grid for atomic number  38.
 ExpMin= 2.58D-02 ExpMax= 2.89D+03 ExpMxC= 4.35D+02 IAcc=3 IRadAn=         5 AccDes= 0.00D+00
 Harris functional with IExCor= 1009 and IRadAn=       5 diagonalized for initial guess.
 HarFok:  IExCor= 1009 AccDes= 0.00D+00 IRadAn=         5 IDoV= 1 UseB2=F ITyADJ=14
 ICtDFT=  3500011 ScaDFX=  1.000000  1.000000  1.000000  1.000000
 Defaulting to unpruned grid for atomic number  38.
 FoFCou: FMM=F IPFlag=           0 FMFlag=      100000 FMFlg1=           0
         NFxFlg=           0 DoJE=T BraDBF=F KetDBF=T FulRan=T
         wScrn=  0.000000 ICntrl=       500 IOpCl=  0 I1Cent=   200000004 NGrid=           0
         NMat0=    1 NMatS0=      1 NMatT0=    0 NMatD0=    1 NMtDS0=    0 NMtDT0=    0
 Petite list used in FoFCou.
 Initial guess <Sx>= 0.0000 <Sy>= 0.0000 <Sz>= 0.5000 <S**2>= 0.7500 S= 0.5000
 Keep R1 and R2 ints in memory in canonical form, NReq=64484939.
 Requested convergence on RMS density matrix=1.00D-08 within 128 cycles.
 Requested convergence on MAX density matrix=1.00D-06.
 Requested convergence on             energy=1.00D-06.
 No special actions if energy rises.
 Defaulting to unpruned grid for atomic number  38.
 Defaulting to unpruned grid for atomic number  38.
 Defaulting to unpruned grid for atomic number  38.
 Defaulting to unpruned grid for atomic number  38.
 Defaulting to unpruned grid for atomic number  38.
 Defaulting to unpruned grid for atomic number  38.
 Defaulting to unpruned grid for atomic number  38.
 Defaulting to unpruned grid for atomic number  38.
 Defaulting to unpruned grid for atomic number  38.
 Defaulting to unpruned grid for atomic number  38.
 Defaulting to unpruned grid for atomic number  38.
 Defaulting to unpruned grid for atomic number  38.
 Defaulting to unpruned grid for atomic number  38.
 Defaulting to unpruned grid for atomic number  38.
 Defaulting to unpruned grid for atomic number  38.
 Defaulting to unpruned grid for atomic number  38.
 Defaulting to unpruned grid for atomic number  38.
 Defaulting to unpruned grid for atomic number  38.
 Defaulting to unpruned grid for atomic number  38.
 Defaulting to unpruned grid for atomic number  38.
 Defaulting to unpruned grid for atomic number  38.
 Defaulting to unpruned grid for atomic number  38.
 Defaulting to unpruned grid for atomic number  38.
 Defaulting to unpruned grid for atomic number  38.
 Defaulting to unpruned grid for atomic number  38.
 Defaulting to unpruned grid for atomic number  38.
 Defaulting to unpruned grid for atomic number  38.
 Defaulting to unpruned grid for atomic number  38.
 Defaulting to unpruned grid for atomic number  38.
 Defaulting to unpruned grid for atomic number  38.
 Defaulting to unpruned grid for atomic number  38.
 Defaulting to unpruned grid for atomic number  38.
 Defaulting to unpruned grid for atomic number  38.
 Defaulting to unpruned grid for atomic number  38.
 Defaulting to unpruned grid for atomic number  38.
 Defaulting to unpruned grid for atomic number  38.
 Defaulting to unpruned grid for atomic number  38.
 Defaulting to unpruned grid for atomic number  38.
 Defaulting to unpruned grid for atomic number  38.
 Defaulting to unpruned grid for atomic number  38.
 Defaulting to unpruned grid for atomic number  38.
 Defaulting to unpruned grid for atomic number  38.
 Defaulting to unpruned grid for atomic number  38.
 Defaulting to unpruned grid for atomic number  38.
 Defaulting to unpruned grid for atomic number  38.
 Defaulting to unpruned grid for atomic number  38.
 Defaulting to unpruned grid for atomic number  38.
 Defaulting to unpruned grid for atomic number  38.
 Defaulting to unpruned grid for atomic number  38.
 CoulSu:  requested number of processors reduced to:  40 ShMem   1 Linda.
 Inv3:  Mode=1 IEnd=     2898867.
 Iteration    1 A*A^-1 deviation from unit magnitude is 3.00D-15 for    725.
 Iteration    1 A*A^-1 deviation from orthogonality  is 1.53D-15 for    945    577.
 Iteration    1 A^-1*A deviation from unit magnitude is 2.55D-15 for    368.
 Iteration    1 A^-1*A deviation from orthogonality  is 1.39D-15 for    652     80.
 CoulSu:  requested number of processors reduced to:  40 ShMem   1 Linda.
 CoulSu:  requested number of processors reduced to:  40 ShMem   1 Linda.
 CoulSu:  requested number of processors reduced to:  41 ShMem   1 Linda.
 CoulSu:  requested number of processors reduced to:  38 ShMem   1 Linda.
 Error on total polarization charges =  0.13323
 SCF Done:  E(UM062X) =  -454.735319880     A.U. after   18 cycles
            NFock= 18  Conv=0.52D-08     -V/T= 2.0552
 <Sx>= 0.0000 <Sy>= 0.0000 <Sz>= 0.5000 <S**2>= 0.7503 S= 0.5002
 <L.S>=  0.00000000000    
 Annihilation of the first spin contaminant:
 S**2 before annihilation     0.7503,   after     0.7500

 **********************************************************************

            Population analysis using the SCF density.

 **********************************************************************

 Orbital symmetries:
 Alpha Orbitals:
       Occupied  (A) (A) (A) (A) (A) (A) (A) (A) (A) (A) (A) (A)
                 (A) (A) (A) (A) (A) (A) (A) (A) (A) (A) (A) (A)
                 (A) (A)
       Virtual   (A) (A) (A) (A) (A) (A) (A) (A) (A) (A) (A) (A)
                 (A) (A) (A) (A) (A) (A) (A) (A) (A) (A) (A) (A)
                 (A) (A) (A) (A) (A) (A) (A) (A) (A) (A) (A) (A)
                 (A) (A) (A) (A) (A) (A) (A) (A) (A) (A) (A) (A)
                 (A) (A) (A) (A) (A) (A) (A) (A) (A) (A) (A) (A)
                 (A) (A) (A) (A) (A) (A) (A)
 Beta  Orbitals:
       Occupied  (A) (A) (A) (A) (A) (A) (A) (A) (A) (A) (A) (A)
                 (A) (A) (A) (A) (A) (A) (A) (A) (A) (A) (A) (A)
                 (A)
       Virtual   (A) (A) (A) (A) (A) (A) (A) (A) (A) (A) (A) (A)
                 (A) (A) (A) (A) (A) (A) (A) (A) (A) (A) (A) (A)
                 (A) (A) (A) (A) (A) (A) (A) (A) (A) (A) (A) (A)
                 (A) (A) (A) (A) (A) (A) (A) (A) (A) (A) (A) (A)
                 (A) (A) (A) (A) (A) (A) (A) (A) (A) (A) (A) (A)
                 (A) (A) (A) (A) (A) (A) (A) (A)
 The electronic state is 2-A.
 Alpha  occ. eigenvalues --  -25.25383 -25.20084 -25.19945 -25.19625  -7.17582
 Alpha  occ. eigenvalues --   -1.66333  -1.35297  -1.27778  -1.25489  -1.23379
 Alpha  occ. eigenvalues --   -0.92469  -0.92108  -0.92097  -0.67157  -0.60386
 Alpha  occ. eigenvalues --   -0.60276  -0.59947  -0.52429  -0.51934  -0.48800
 Alpha  occ. eigenvalues --   -0.48360  -0.47288  -0.45698  -0.45549  -0.44438
 Alpha  occ. eigenvalues --   -0.10255
 Alpha virt. eigenvalues --    0.03388   0.03709   0.04880   0.06841   0.06899
 Alpha virt. eigenvalues --    0.07508   0.09482   0.10293   0.13637   0.16623
 Alpha virt. eigenvalues --    0.16769   0.17241   0.17294   0.18176   0.25374
 Alpha virt. eigenvalues --    0.27944   0.28873   0.29335   0.30766   0.31921
 Alpha virt. eigenvalues --    0.37290   0.45908   0.48195   0.50656   0.55616
 Alpha virt. eigenvalues --    1.09786   1.13467   1.17233   1.18998   1.26562
 Alpha virt. eigenvalues --    1.31906   1.34360   1.40471   1.42179   1.44167
 Alpha virt. eigenvalues --    1.45203   1.47470   1.51532   1.57939   1.62494
 Alpha virt. eigenvalues --    1.66633   1.68116   1.72789   1.80453   1.84172
 Alpha virt. eigenvalues --    2.05070   3.12713   3.13016   3.13384   3.14312
 Alpha virt. eigenvalues --    3.16157   3.18226   3.18431   3.18757   3.19011
 Alpha virt. eigenvalues --    3.19834   3.20721   3.41100   3.42927   3.44989
 Alpha virt. eigenvalues --    3.66237   3.71489   3.75126   3.83293   3.83675
 Alpha virt. eigenvalues --    3.86459  30.17410
  Beta  occ. eigenvalues --  -25.25331 -25.20076 -25.19935 -25.19565  -7.17580
  Beta  occ. eigenvalues --   -1.66080  -1.35227  -1.27742  -1.25463  -1.23273
  Beta  occ. eigenvalues --   -0.92466  -0.92164  -0.92149  -0.67080  -0.60357
  Beta  occ. eigenvalues --   -0.60243  -0.59887  -0.52364  -0.51893  -0.48761
  Beta  occ. eigenvalues --   -0.48339  -0.47238  -0.45627  -0.45483  -0.44372
  Beta virt. eigenvalues --   -0.02648   0.01891   0.03999   0.05766   0.06140
  Beta virt. eigenvalues --    0.07804   0.09579   0.09693   0.10579   0.16638
  Beta virt. eigenvalues --    0.17544   0.18236   0.18899   0.19266   0.20379
  Beta virt. eigenvalues --    0.25173   0.27558   0.27845   0.29186   0.30434
  Beta virt. eigenvalues --    0.31847   0.36907   0.44960   0.48037   0.50148
  Beta virt. eigenvalues --    0.55256   1.09818   1.13435   1.17204   1.18987
  Beta virt. eigenvalues --    1.26370   1.31859   1.34224   1.40444   1.42146
  Beta virt. eigenvalues --    1.44124   1.45140   1.47335   1.51258   1.57483
  Beta virt. eigenvalues --    1.62328   1.66225   1.67587   1.72657   1.80149
  Beta virt. eigenvalues --    1.84024   2.04469   3.12743   3.13051   3.13417
  Beta virt. eigenvalues --    3.14357   3.16182   3.18240   3.18445   3.18772
  Beta virt. eigenvalues --    3.19028   3.19901   3.20778   3.41121   3.42961
  Beta virt. eigenvalues --    3.45013   3.66274   3.71513   3.75149   3.83312
  Beta virt. eigenvalues --    3.83682   3.86492  30.17126
          Condensed to atoms (all electrons):
               1          2          3          4          5          6
     1  F    8.950113   0.397060  -0.020084  -0.019358   0.006603  -0.016857
     2  B    0.397060   3.158570   0.413509   0.269219  -0.022859   0.335005
     3  F   -0.020084   0.413509   8.914167  -0.016096   0.005533  -0.028571
     4  F   -0.019358   0.269219  -0.016096   9.129357   0.062411  -0.022756
     5  Sr   0.006603  -0.022859   0.005533   0.062411   9.136774   0.064288
     6  F   -0.016857   0.335005  -0.028571  -0.022756   0.064288   8.896923
          Atomic-Atomic Spin Densities.
               1          2          3          4          5          6
     1  F    0.004599  -0.000273   0.000177   0.000150  -0.002256   0.000173
     2  B   -0.000273  -0.003770  -0.000039   0.000922  -0.008179   0.001246
     3  F    0.000177  -0.000039   0.003494   0.000113  -0.001856   0.000184
     4  F    0.000150   0.000922   0.000113   0.022067  -0.017135   0.000440
     5  Sr  -0.002256  -0.008179  -0.001856  -0.017135   1.043509  -0.018600
     6  F    0.000173   0.001246   0.000184   0.000440  -0.018600   0.019968
 Mulliken charges and spin densities:
               1          2
     1  F   -0.297476   0.002570
     2  B    0.449495  -0.010092
     3  F   -0.268458   0.002072
     4  F   -0.402779   0.006558
     5  Sr   0.747249   0.995482
     6  F   -0.228032   0.003410
 Sum of Mulliken charges =  -0.00000   1.00000
 Mulliken charges and spin densities with hydrogens summed into heavy atoms:
               1          2
     1  F   -0.297476   0.002570
     2  B    0.449495  -0.010092
     3  F   -0.268458   0.002072
     4  F   -0.402779   0.006558
     5  Sr   0.747249   0.995482
     6  F   -0.228032   0.003410
 Electronic spatial extent (au):  <R**2>=            803.6519
 Charge=              0.0000 electrons
 Dipole moment (field-independent basis, Debye):
    X=             10.7538    Y=             -0.8076    Z=             -0.6961  Tot=             10.8065
 Quadrupole moment (field-independent basis, Debye-Ang):
   XX=            -54.2072   YY=            -52.5029   ZZ=            -52.1009
   XY=              0.6387   XZ=              0.4325   YZ=              0.3494
 Traceless Quadrupole moment (field-independent basis, Debye-Ang):
   XX=             -1.2702   YY=              0.4341   ZZ=              0.8361
   XY=              0.6387   XZ=              0.4325   YZ=              0.3494
 Octapole moment (field-independent basis, Debye-Ang**2):
  XXX=             34.8334  YYY=             -1.5830  ZZZ=             -0.6036  XYY=              4.1627
  XXY=              0.4324  XXZ=              1.0621  XZZ=              3.0540  YZZ=             -2.2002
  YYZ=             -1.0273  XYZ=             -2.8643
 Hexadecapole moment (field-independent basis, Debye-Ang**3):
 XXXX=          -1010.8707 YYYY=           -202.8781 ZZZZ=           -194.7364 XXXY=             -0.7944
 XXXZ=             -0.9676 YYYX=              0.6153 YYYZ=              2.0705 ZZZX=              1.3076
 ZZZY=              1.7727 XXYY=           -207.3027 XXZZ=           -203.5244 YYZZ=            -68.0721
 XXYZ=             13.9545 YYXZ=              1.5302 ZZXY=              2.4431
 N-N= 2.465836256876D+02 E-N=-1.565141194132D+03  KE= 4.309420605420D+02
                          Isotropic Fermi Contact Couplings
        Atom                 a.u.       MegaHertz       Gauss      10(-4) cm-1
     1  F(19)              0.00691      29.08469      10.37814       9.70161
     2  B(11)              0.00225       3.23099       1.15290       1.07774
     3  F(19)              0.00558      23.45971       8.37101       7.82532
     4  F(19)              0.06178     259.93879      92.75262      86.70625
     5  Sr(87)             0.00003      -0.00599      -0.00214      -0.00200
     6  F(19)              0.07089     298.27900     106.43336      99.49516
 --------------------------------------------------------
       Center         ----  Spin Dipole Couplings  ----
                      3XX-RR        3YY-RR        3ZZ-RR
 --------------------------------------------------------
     1   Atom        0.007514     -0.003976     -0.003538
     2   Atom        0.002953     -0.001479     -0.001474
     3   Atom        0.005112     -0.002608     -0.002504
     4   Atom        0.039450     -0.019719     -0.019731
     5   Atom        0.005446     -0.002692     -0.002755
     6   Atom        0.023290     -0.012317     -0.010973
 --------------------------------------------------------
                        XY            XZ            YZ
 --------------------------------------------------------
     1   Atom        0.002907     -0.002110     -0.001547
     2   Atom       -0.000008     -0.000078      0.000415
     3   Atom       -0.001036      0.001953     -0.001431
     4   Atom       -0.003562     -0.006441     -0.005319
     5   Atom        0.001168      0.000646      0.000218
     6   Atom        0.001820     -0.002401     -0.004691
 --------------------------------------------------------


 ---------------------------------------------------------------------------------
              Anisotropic Spin Dipole Couplings in Principal Axis System
 ---------------------------------------------------------------------------------

       Atom             a.u.   MegaHertz   Gauss  10(-4) cm-1        Axes

              Baa    -0.0054    -2.708    -0.966    -0.903 -0.0887  0.8121  0.5767
     1 F(19)  Bbb    -0.0033    -1.654    -0.590    -0.552  0.2977 -0.5309  0.7934
              Bcc     0.0087     4.362     1.557     1.455  0.9505  0.2420 -0.1947
 
              Baa    -0.0019    -0.324    -0.116    -0.108 -0.0101  0.7084 -0.7057
     2 B(11)  Bbb    -0.0011    -0.182    -0.065    -0.061  0.0151  0.7058  0.7083
              Bcc     0.0030     0.506     0.180     0.169  0.9998 -0.0035 -0.0178
 
              Baa    -0.0040    -2.028    -0.724    -0.676 -0.0799  0.6759  0.7327
     3 F(19)  Bbb    -0.0018    -0.886    -0.316    -0.296  0.2879  0.7194 -0.6322
              Bcc     0.0058     2.914     1.040     0.972  0.9543 -0.1604  0.2521
 
              Baa    -0.0258   -12.965    -4.626    -4.325  0.1083  0.6888  0.7168
     4 F(19)  Bbb    -0.0145    -7.271    -2.594    -2.425 -0.0346  0.7233 -0.6897
              Bcc     0.0403    20.235     7.220     6.750  0.9935 -0.0499 -0.1022
 
              Baa    -0.0030     0.069     0.025     0.023 -0.0580  0.7695 -0.6360
     5 Sr(87) Bbb    -0.0027     0.063     0.022     0.021 -0.1501  0.6231  0.7676
              Bcc     0.0057    -0.131    -0.047    -0.044  0.9870  0.1400  0.0794
 
              Baa    -0.0164    -8.229    -2.936    -2.745  0.0051  0.7545  0.6563
     6 F(19)  Bbb    -0.0072    -3.617    -1.291    -1.207  0.0981 -0.6535  0.7505
              Bcc     0.0236    11.846     4.227     3.951  0.9952  0.0606 -0.0774
 

 ---------------------------------------------------------------------------------

 PrsmSu:  requested number of processors reduced to:  22 ShMem   1 Linda.
   1 Symmetry operations used in ECPInt.
 ECPInt:  NShTT=     780 NPrTT=    3083 LenC2=     775 LenP2D=    2572.
 LDataN:  DoStor=T MaxTD1= 7 Len=  274
 Number of processors reduced to  24 by ecpmxn.
 D1PCM: PCM CHGder 1st derivatives, ID1Alg=3 FixD1E=F DoIter=F DoCFld=F I1PDM=0.
 CoulSu:  requested number of processors reduced to:  48 ShMem   1 Linda.
 CoulSu:  requested number of processors reduced to:  48 ShMem   1 Linda.
 CoulSu:  requested number of processors reduced to:  29 ShMem   1 Linda.
 CoulSu:  requested number of processors reduced to:  30 ShMem   1 Linda.
 Calling FoFJK, ICntrl=      2127 FMM=F ISym2X=0 I1Cent= 0 IOpClX= 1 NMat=1 NMatS=1 NMatT=0.
 Defaulting to unpruned grid for atomic number  38.
 Defaulting to unpruned grid for atomic number  38.
 Defaulting to unpruned grid for atomic number  38.
 Defaulting to unpruned grid for atomic number  38.
 Defaulting to unpruned grid for atomic number  38.
 Defaulting to unpruned grid for atomic number  38.
 Defaulting to unpruned grid for atomic number  38.
 Defaulting to unpruned grid for atomic number  38.
 Defaulting to unpruned grid for atomic number  38.
 Defaulting to unpruned grid for atomic number  38.
 Defaulting to unpruned grid for atomic number  38.
 Defaulting to unpruned grid for atomic number  38.
 Defaulting to unpruned grid for atomic number  38.
 Defaulting to unpruned grid for atomic number  38.
 Defaulting to unpruned grid for atomic number  38.
 Defaulting to unpruned grid for atomic number  38.
 Defaulting to unpruned grid for atomic number  38.
 Defaulting to unpruned grid for atomic number  38.
 Defaulting to unpruned grid for atomic number  38.
 Defaulting to unpruned grid for atomic number  38.
 Defaulting to unpruned grid for atomic number  38.
 Defaulting to unpruned grid for atomic number  38.
 Defaulting to unpruned grid for atomic number  38.
 Defaulting to unpruned grid for atomic number  38.
 Defaulting to unpruned grid for atomic number  38.
 Defaulting to unpruned grid for atomic number  38.
 Defaulting to unpruned grid for atomic number  38.
 Defaulting to unpruned grid for atomic number  38.
 Defaulting to unpruned grid for atomic number  38.
 Defaulting to unpruned grid for atomic number  38.
 Defaulting to unpruned grid for atomic number  38.
 Defaulting to unpruned grid for atomic number  38.
 Defaulting to unpruned grid for atomic number  38.
 Defaulting to unpruned grid for atomic number  38.
 Defaulting to unpruned grid for atomic number  38.
 Defaulting to unpruned grid for atomic number  38.
 Defaulting to unpruned grid for atomic number  38.
 Defaulting to unpruned grid for atomic number  38.
 Defaulting to unpruned grid for atomic number  38.
 Defaulting to unpruned grid for atomic number  38.
 Defaulting to unpruned grid for atomic number  38.
 Defaulting to unpruned grid for atomic number  38.
 Defaulting to unpruned grid for atomic number  38.
 Defaulting to unpruned grid for atomic number  38.
 Defaulting to unpruned grid for atomic number  38.
 Defaulting to unpruned grid for atomic number  38.
 Defaulting to unpruned grid for atomic number  38.
 Defaulting to unpruned grid for atomic number  38.
 Defaulting to unpruned grid for atomic number  38.
 ***** Axes restored to original set *****
 -------------------------------------------------------------------
 Center     Atomic                   Forces (Hartrees/Bohr)
 Number     Number              X              Y              Z
 -------------------------------------------------------------------
      1        9           0.002921925   -0.006564219    0.028851790
      2        5           0.054036951    0.042756290   -0.031852790
      3        9           0.006894661   -0.005166144   -0.010025707
      4        9          -0.044710893    0.005245970    0.003558212
      5       38           0.010019320   -0.005606826    0.000358361
      6        9          -0.029161965   -0.030665070    0.009110135
 -------------------------------------------------------------------
 Cartesian Forces:  Max     0.054036951 RMS     0.024570130

 GradGradGradGradGradGradGradGradGradGradGradGradGradGradGradGradGradGrad
 Berny optimization.
 FormGI is forming the generalized inverse of G from B-inverse, IUseBI=4.
 Internal  Forces:  Max     0.044420422 RMS     0.016492317
 Search for a local minimum.
 Step number   1 out of a maximum of   10
 All quantities printed in internal units (Hartrees-Bohrs-Radians)
 Mixed Optimization -- RFO/linear search
 Second derivative matrix not updated -- first step.
 The second derivative matrix:
                          R1        R2        R3        R4        R5
           R1           0.42908
           R2           0.00000   0.47566
           R3           0.00000   0.00000   0.28199
           R4           0.00000   0.00000   0.00000   0.02160
           R5           0.00000   0.00000   0.00000   0.00000   0.56575
           R6           0.00000   0.00000   0.00000   0.00000   0.00000
           R7           0.00000   0.00000   0.00000   0.00000   0.00000
           A1           0.00000   0.00000   0.00000   0.00000   0.00000
           A2           0.00000   0.00000   0.00000   0.00000   0.00000
           A3           0.00000   0.00000   0.00000   0.00000   0.00000
           A4           0.00000   0.00000   0.00000   0.00000   0.00000
           A5           0.00000   0.00000   0.00000   0.00000   0.00000
           A6           0.00000   0.00000   0.00000   0.00000   0.00000
           A7           0.00000   0.00000   0.00000   0.00000   0.00000
           A8           0.00000   0.00000   0.00000   0.00000   0.00000
           A9           0.00000   0.00000   0.00000   0.00000   0.00000
           D1           0.00000   0.00000   0.00000   0.00000   0.00000
           D2           0.00000   0.00000   0.00000   0.00000   0.00000
           D3           0.00000   0.00000   0.00000   0.00000   0.00000
           D4           0.00000   0.00000   0.00000   0.00000   0.00000
                          R6        R7        A1        A2        A3
           R6           0.03729
           R7           0.00000   0.07410
           A1           0.00000   0.00000   0.25000
           A2           0.00000   0.00000   0.00000   0.25000
           A3           0.00000   0.00000   0.00000   0.00000   0.25000
           A4           0.00000   0.00000   0.00000   0.00000   0.00000
           A5           0.00000   0.00000   0.00000   0.00000   0.00000
           A6           0.00000   0.00000   0.00000   0.00000   0.00000
           A7           0.00000   0.00000   0.00000   0.00000   0.00000
           A8           0.00000   0.00000   0.00000   0.00000   0.00000
           A9           0.00000   0.00000   0.00000   0.00000   0.00000
           D1           0.00000   0.00000   0.00000   0.00000   0.00000
           D2           0.00000   0.00000   0.00000   0.00000   0.00000
           D3           0.00000   0.00000   0.00000   0.00000   0.00000
           D4           0.00000   0.00000   0.00000   0.00000   0.00000
                          A4        A5        A6        A7        A8
           A4           0.25000
           A5           0.00000   0.25000
           A6           0.00000   0.00000   0.25000
           A7           0.00000   0.00000   0.00000   0.25000
           A8           0.00000   0.00000   0.00000   0.00000   0.25000
           A9           0.00000   0.00000   0.00000   0.00000   0.00000
           D1           0.00000   0.00000   0.00000   0.00000   0.00000
           D2           0.00000   0.00000   0.00000   0.00000   0.00000
           D3           0.00000   0.00000   0.00000   0.00000   0.00000
           D4           0.00000   0.00000   0.00000   0.00000   0.00000
                          A9        D1        D2        D3        D4
           A9           0.25000
           D1           0.00000   0.00230
           D2           0.00000   0.00000   0.02713
           D3           0.00000   0.00000   0.00000   0.02713
           D4           0.00000   0.00000   0.00000   0.00000   0.00230
 ITU=  0
     Eigenvalues ---    0.03629   0.05789   0.07474   0.09690   0.14420
     Eigenvalues ---    0.21009   0.25000   0.25000   0.28087   0.42908
     Eigenvalues ---    0.47566   0.54492
 RFO step:  Lambda=-1.68813763D-02 EMin= 3.62904306D-02
 Linear search not attempted -- first point.
 Iteration  1 RMS(Cart)=  0.06870315 RMS(Int)=  0.00299996
 Iteration  2 RMS(Cart)=  0.00197050 RMS(Int)=  0.00184832
 Iteration  3 RMS(Cart)=  0.00000518 RMS(Int)=  0.00184832
 Iteration  4 RMS(Cart)=  0.00000002 RMS(Int)=  0.00184832
 Variable       Old X    -DE/DX   Delta X   Delta X   Delta X     New X
                                 (Linear)    (Quad)   (Total)
    R1        2.67784  -0.02938   0.00000  -0.06588  -0.06588   2.61195
    R2        2.62405  -0.01068   0.00000  -0.02169  -0.02169   2.60236
    R3        2.91705  -0.04419   0.00000  -0.14554  -0.14489   2.77217
    R4        5.96880   0.00907   0.00000   0.06380   0.06010   6.02890
    R5        2.53758   0.04442   0.00000   0.08058   0.08171   2.61929
    R6        5.25086  -0.00964   0.00000  -0.14429  -0.14253   5.10833
    R7        4.51514   0.00740   0.00000   0.13355   0.13539   4.65053
    A1        1.96492  -0.00196   0.00000  -0.00232  -0.00226   1.96266
    A2        1.85340   0.00198   0.00000   0.00684   0.00706   1.86046
    A3        2.11670  -0.00197   0.00000  -0.00120  -0.00140   2.11530
    A4        1.99556  -0.00947   0.00000  -0.03692  -0.03668   1.95888
    A5        1.91629  -0.00104   0.00000  -0.01008  -0.00879   1.90750
    A6        2.19548   0.00465   0.00000   0.01273   0.00943   2.20491
    A7        1.88456   0.00893   0.00000   0.05811   0.05967   1.94423
    A8        1.84440   0.00168   0.00000  -0.01836  -0.02232   1.82208
    A9        0.91247   0.00079   0.00000  -0.01077  -0.01332   0.89915
    D1       -1.65564   0.00754   0.00000   0.06543   0.06654  -1.58910
    D2       -2.04976  -0.00399   0.00000  -0.00711  -0.00684  -2.05660
    D3       -2.15059   0.00420   0.00000   0.05304   0.05061  -2.09997
    D4        0.05470  -0.00306   0.00000  -0.02715  -0.02855   0.02615
         Item               Value     Threshold  Converged?
 Maximum Force            0.044420     0.000450     NO 
 RMS     Force            0.016492     0.000300     NO 
 Maximum Displacement     0.181435     0.001800     NO 
 RMS     Displacement     0.069441     0.001200     NO 
 Predicted change in Energy=-9.098779D-03
 GradGradGradGradGradGradGradGradGradGradGradGradGradGradGradGradGradGrad

                          Input orientation:                          
 ---------------------------------------------------------------------
 Center     Atomic      Atomic             Coordinates (Angstroms)
 Number     Number       Type             X           Y           Z
 ---------------------------------------------------------------------
      1          9           0        4.332243    6.084680    2.405914
      2          5           0        4.611123    5.884492    3.744790
      3          9           0        4.500247    7.041217    4.483790
      4          9           0        5.991829    5.394073    3.816436
      5         38           0        5.343348    2.988519    4.865313
      6          9           0        3.852990    4.860800    4.291117
 ---------------------------------------------------------------------
                    Distance matrix (angstroms):
                    1          2          3          4          5
     1  F    0.000000
     2  B    1.382186   0.000000
     3  F    2.293635   1.377109   0.000000
     4  F    2.284893   1.466967   2.320186   0.000000
     5  Sr   4.081322   3.190358   4.157011   2.703213   0.000000
     6  F    2.298163   1.386067   2.282605   2.254846   2.460956
                    6
     6  F    0.000000
 Stoichiometry    BF4Sr(2)
 Framework group  C1[X(BF4Sr)]
 Deg. of freedom    12
 Full point group                 C1      NOp   1
 Largest Abelian subgroup         C1      NOp   1
 Largest concise Abelian subgroup C1      NOp   1
                         Standard orientation:                         
 ---------------------------------------------------------------------
 Center     Atomic      Atomic             Coordinates (Angstroms)
 Number     Number       Type             X           Y           Z
 ---------------------------------------------------------------------
      1          9           0       -2.274423    1.019688   -0.591132
      2          5           0       -1.557293   -0.022428   -0.034215
      3          9           0       -2.371595   -1.024390    0.444757
      4          9           0       -0.784870    0.546467    1.075611
      5         38           0        1.632838   -0.001841   -0.002075
      6          9           0       -0.598152   -0.521533   -0.901468
 ---------------------------------------------------------------------
 Rotational constants (GHZ):           5.1377389           0.9504407           0.9456248
 Standard basis: def2SVP (5D, 7F)
 There are   100 symmetry adapted cartesian basis functions of A   symmetry.
 There are    93 symmetry adapted basis functions of A   symmetry.
    93 basis functions,   179 primitive gaussians,   100 cartesian basis functions
    26 alpha electrons       25 beta electrons
       nuclear repulsion energy       248.6841838247 Hartrees.
 NAtoms=    6 NActive=    6 NUniq=    6 SFac= 1.00D+00 NAtFMM=   60 NAOKFM=F Big=F
 Integral buffers will be    131072 words long.
 Raffenetti 2 integral format.
 Two-electron integral symmetry is turned on.
 ------------------------------------------------------------------------------
 Polarizable Continuum Model (PCM)
 =================================
 Model                : PCM.
 Atomic radii         : UFF (Universal Force Field).
 Polarization charges : Total charges.
 Charge compensation  : None.
 Solution method      : On-the-fly selection.
 Cavity type          : Scaled VdW (van der Waals Surface) (Alpha=1.100).
 Cavity algorithm     : GePol (No added spheres)
                        Default sphere list used, NSphG=    6.
                        Lebedev-Laikov grids with approx.  5.0 points / Ang**2.
                        Smoothing algorithm: York/Karplus (Gamma=1.0000).
                        Polarization charges: spherical gaussians, with
                                              point-specific exponents (IZeta= 3).
                        Self-potential: point-specific (ISelfS= 7).
                        Self-field    : sphere-specific E.n sum rule (ISelfD= 2).
 1st derivatives      : Analytical E(r).r(x)/FMM algorithm (CHGder, D1EAlg=3).
                        Cavity 1st derivative terms included.
 Solvent              : Water, Eps=  78.355300 Eps(inf)=   1.777849
 ------------------------------------------------------------------------------
 Spheres list:
 ISph  on   Nord     Re0    Alpha      Xe            Ye            Ze
    1   F      1    1.6820  1.100     -2.274423      1.019688     -0.591132
    2   B      2    2.0415  1.100     -1.557293     -0.022428     -0.034215
    3   F      3    1.6820  1.100     -2.371595     -1.024390      0.444757
    4   F      4    1.6820  1.100     -0.784870      0.546467      1.075611
    5  Sr      5    1.8205  1.100      1.632838     -0.001841     -0.002075
    6   F      6    1.6820  1.100     -0.598152     -0.521533     -0.901468
 ------------------------------------------------------------------------------
 One-electron integrals computed using PRISM.
 PrsmSu:  requested number of processors reduced to:  30 ShMem   1 Linda.
   1 Symmetry operations used in ECPInt.
 ECPInt:  NShTT=     780 NPrTT=    3083 LenC2=     775 LenP2D=    2571.
 LDataN:  DoStor=T MaxTD1= 6 Len=  172
 Number of processors reduced to  27 by ecpmxn.
 NBasis=    93 RedAO= T EigKep=  1.60D-02  NBF=    93
 NBsUse=    93 1.00D-06 EigRej= -1.00D+00 NBFU=    93
 Defaulting to unpruned grid for atomic number  38.
 Initial guess from the checkpoint file:  "/home/zz1/proj/gauss/new/chk/Sr-UDIRAA-1/153.chk"
 B after Tr=    -0.000000    0.000000   -0.000000
         Rot=    0.990229   -0.139418   -0.001562    0.002589 Ang= -16.03 deg.
 Initial guess <Sx>= 0.0000 <Sy>= 0.0000 <Sz>= 0.5000 <S**2>= 0.7503 S= 0.5002
 ExpMin= 2.58D-02 ExpMax= 2.89D+03 ExpMxC= 4.35D+02 IAcc=3 IRadAn=         5 AccDes= 0.00D+00
 Harris functional with IExCor= 1009 and IRadAn=       5 diagonalized for initial guess.
 HarFok:  IExCor= 1009 AccDes= 0.00D+00 IRadAn=         5 IDoV= 1 UseB2=F ITyADJ=14
 ICtDFT=  3500011 ScaDFX=  1.000000  1.000000  1.000000  1.000000
 Defaulting to unpruned grid for atomic number  38.
 FoFCou: FMM=F IPFlag=           0 FMFlag=      100000 FMFlg1=           0
         NFxFlg=           0 DoJE=T BraDBF=F KetDBF=T FulRan=T
         wScrn=  0.000000 ICntrl=       500 IOpCl=  0 I1Cent=   200000004 NGrid=           0
         NMat0=    1 NMatS0=      1 NMatT0=    0 NMatD0=    1 NMtDS0=    0 NMtDT0=    0
 Petite list used in FoFCou.
 Keep R1 and R2 ints in memory in canonical form, NReq=64484939.
 Requested convergence on RMS density matrix=1.00D-08 within 128 cycles.
 Requested convergence on MAX density matrix=1.00D-06.
 Requested convergence on             energy=1.00D-06.
 No special actions if energy rises.
 Defaulting to unpruned grid for atomic number  38.
 Defaulting to unpruned grid for atomic number  38.
 Defaulting to unpruned grid for atomic number  38.
 Defaulting to unpruned grid for atomic number  38.
 Defaulting to unpruned grid for atomic number  38.
 Defaulting to unpruned grid for atomic number  38.
 Defaulting to unpruned grid for atomic number  38.
 Defaulting to unpruned grid for atomic number  38.
 Defaulting to unpruned grid for atomic number  38.
 Defaulting to unpruned grid for atomic number  38.
 Defaulting to unpruned grid for atomic number  38.
 Defaulting to unpruned grid for atomic number  38.
 Defaulting to unpruned grid for atomic number  38.
 Defaulting to unpruned grid for atomic number  38.
 Defaulting to unpruned grid for atomic number  38.
 Defaulting to unpruned grid for atomic number  38.
 Defaulting to unpruned grid for atomic number  38.
 Defaulting to unpruned grid for atomic number  38.
 Defaulting to unpruned grid for atomic number  38.
 Defaulting to unpruned grid for atomic number  38.
 Defaulting to unpruned grid for atomic number  38.
 Defaulting to unpruned grid for atomic number  38.
 Defaulting to unpruned grid for atomic number  38.
 Defaulting to unpruned grid for atomic number  38.
 Defaulting to unpruned grid for atomic number  38.
 Defaulting to unpruned grid for atomic number  38.
 Defaulting to unpruned grid for atomic number  38.
 Defaulting to unpruned grid for atomic number  38.
 Defaulting to unpruned grid for atomic number  38.
 Defaulting to unpruned grid for atomic number  38.
 Defaulting to unpruned grid for atomic number  38.
 Defaulting to unpruned grid for atomic number  38.
 Defaulting to unpruned grid for atomic number  38.
 Defaulting to unpruned grid for atomic number  38.
 Defaulting to unpruned grid for atomic number  38.
 Defaulting to unpruned grid for atomic number  38.
 Defaulting to unpruned grid for atomic number  38.
 Defaulting to unpruned grid for atomic number  38.
 Defaulting to unpruned grid for atomic number  38.
 Defaulting to unpruned grid for atomic number  38.
 Defaulting to unpruned grid for atomic number  38.
 Defaulting to unpruned grid for atomic number  38.
 Defaulting to unpruned grid for atomic number  38.
 Defaulting to unpruned grid for atomic number  38.
 Defaulting to unpruned grid for atomic number  38.
 Defaulting to unpruned grid for atomic number  38.
 Defaulting to unpruned grid for atomic number  38.
 Defaulting to unpruned grid for atomic number  38.
 Defaulting to unpruned grid for atomic number  38.
 CoulSu:  requested number of processors reduced to:  40 ShMem   1 Linda.
 Inv3:  Mode=1 IEnd=     2869452.
 Iteration    1 A*A^-1 deviation from unit magnitude is 2.66D-15 for    361.
 Iteration    1 A*A^-1 deviation from orthogonality  is 2.00D-15 for    863    256.
 Iteration    1 A^-1*A deviation from unit magnitude is 2.44D-15 for    728.
 Iteration    1 A^-1*A deviation from orthogonality  is 1.60D-14 for    923    862.
 CoulSu:  requested number of processors reduced to:  40 ShMem   1 Linda.
 CoulSu:  requested number of processors reduced to:  40 ShMem   1 Linda.
 CoulSu:  requested number of processors reduced to:  41 ShMem   1 Linda.
 CoulSu:  requested number of processors reduced to:  38 ShMem   1 Linda.
 Error on total polarization charges =  0.13433
 SCF Done:  E(UM062X) =  -454.746693558     A.U. after   18 cycles
            NFock= 18  Conv=0.55D-08     -V/T= 2.0550
 <Sx>= 0.0000 <Sy>= 0.0000 <Sz>= 0.5000 <S**2>= 0.7503 S= 0.5001
 <L.S>=  0.00000000000    
 Annihilation of the first spin contaminant:
 S**2 before annihilation     0.7503,   after     0.7500

 **********************************************************************

            Population analysis using the SCF density.

 **********************************************************************

 Orbital symmetries:
 Alpha Orbitals:
       Occupied  (A) (A) (A) (A) (A) (A) (A) (A) (A) (A) (A) (A)
                 (A) (A) (A) (A) (A) (A) (A) (A) (A) (A) (A) (A)
                 (A) (A)
       Virtual   (A) (A) (A) (A) (A) (A) (A) (A) (A) (A) (A) (A)
                 (A) (A) (A) (A) (A) (A) (A) (A) (A) (A) (A) (A)
                 (A) (A) (A) (A) (A) (A) (A) (A) (A) (A) (A) (A)
                 (A) (A) (A) (A) (A) (A) (A) (A) (A) (A) (A) (A)
                 (A) (A) (A) (A) (A) (A) (A) (A) (A) (A) (A) (A)
                 (A) (A) (A) (A) (A) (A) (A)
 Beta  Orbitals:
       Occupied  (A) (A) (A) (A) (A) (A) (A) (A) (A) (A) (A) (A)
                 (A) (A) (A) (A) (A) (A) (A) (A) (A) (A) (A) (A)
                 (A)
       Virtual   (A) (A) (A) (A) (A) (A) (A) (A) (A) (A) (A) (A)
                 (A) (A) (A) (A) (A) (A) (A) (A) (A) (A) (A) (A)
                 (A) (A) (A) (A) (A) (A) (A) (A) (A) (A) (A) (A)
                 (A) (A) (A) (A) (A) (A) (A) (A) (A) (A) (A) (A)
                 (A) (A) (A) (A) (A) (A) (A) (A) (A) (A) (A) (A)
                 (A) (A) (A) (A) (A) (A) (A) (A)
 The electronic state is 2-A.
 Alpha  occ. eigenvalues --  -25.23731 -25.20408 -25.20002 -25.19742  -7.16456
 Alpha  occ. eigenvalues --   -1.66277  -1.33443  -1.27976  -1.25890  -1.25060
 Alpha  occ. eigenvalues --   -0.92286  -0.92074  -0.92062  -0.65922  -0.60508
 Alpha  occ. eigenvalues --   -0.59903  -0.59688  -0.52556  -0.51621  -0.48983
 Alpha  occ. eigenvalues --   -0.48821  -0.47829  -0.46066  -0.45525  -0.44659
 Alpha  occ. eigenvalues --   -0.10227
 Alpha virt. eigenvalues --    0.03413   0.03712   0.04917   0.06849   0.06938
 Alpha virt. eigenvalues --    0.07536   0.09638   0.10283   0.13638   0.16657
 Alpha virt. eigenvalues --    0.16910   0.17255   0.17315   0.17938   0.25502
 Alpha virt. eigenvalues --    0.28665   0.28922   0.29506   0.31722   0.31733
 Alpha virt. eigenvalues --    0.40416   0.45920   0.51221   0.51653   0.54246
 Alpha virt. eigenvalues --    1.11192   1.14280   1.17176   1.19298   1.26977
 Alpha virt. eigenvalues --    1.31611   1.33692   1.41892   1.42959   1.43723
 Alpha virt. eigenvalues --    1.45432   1.47911   1.52939   1.58435   1.64308
 Alpha virt. eigenvalues --    1.66459   1.69729   1.75884   1.79998   1.83459
 Alpha virt. eigenvalues --    2.04106   3.13483   3.13917   3.14490   3.15339
 Alpha virt. eigenvalues --    3.15415   3.18116   3.18207   3.18397   3.18747
 Alpha virt. eigenvalues --    3.19014   3.19483   3.42725   3.46470   3.48109
 Alpha virt. eigenvalues --    3.72667   3.76209   3.77741   3.83644   3.85900
 Alpha virt. eigenvalues --    3.86594  30.17197
  Beta  occ. eigenvalues --  -25.23679 -25.20352 -25.19994 -25.19734  -7.16454
  Beta  occ. eigenvalues --   -1.66024  -1.33380  -1.27923  -1.25865  -1.24974
  Beta  occ. eigenvalues --   -0.92282  -0.92136  -0.92116  -0.65851  -0.60449
  Beta  occ. eigenvalues --   -0.59865  -0.59650  -0.52474  -0.51579  -0.48961
  Beta  occ. eigenvalues --   -0.48785  -0.47788  -0.45990  -0.45488  -0.44604
  Beta virt. eigenvalues --   -0.02256   0.02486   0.04537   0.05847   0.06240
  Beta virt. eigenvalues --    0.07871   0.09723   0.09942   0.10768   0.17071
  Beta virt. eigenvalues --    0.18117   0.18843   0.19189   0.19866   0.20821
  Beta virt. eigenvalues --    0.25418   0.28164   0.28405   0.29979   0.31195
  Beta virt. eigenvalues --    0.32145   0.39639   0.45498   0.50935   0.51368
  Beta virt. eigenvalues --    0.53869   1.11227   1.14268   1.17152   1.19291
  Beta virt. eigenvalues --    1.26795   1.31592   1.33581   1.41861   1.42935
  Beta virt. eigenvalues --    1.43688   1.45371   1.47784   1.52600   1.57971
  Beta virt. eigenvalues --    1.64098   1.66118   1.69104   1.75833   1.79941
  Beta virt. eigenvalues --    1.83206   2.03488   3.13509   3.13970   3.14532
  Beta virt. eigenvalues --    3.15368   3.15445   3.18133   3.18224   3.18429
  Beta virt. eigenvalues --    3.18778   3.19036   3.19528   3.42750   3.46502
  Beta virt. eigenvalues --    3.48133   3.72704   3.76237   3.77765   3.83683
  Beta virt. eigenvalues --    3.85908   3.86602  30.16917
          Condensed to atoms (all electrons):
               1          2          3          4          5          6
     1  F    8.911985   0.416083  -0.022527  -0.024157   0.006382  -0.019366
     2  B    0.416083   3.156056   0.420046   0.295450  -0.020035   0.317912
     3  F   -0.022527   0.420046   8.900030  -0.020344   0.005341  -0.020907
     4  F   -0.024157   0.295450  -0.020344   9.064672   0.064452  -0.027096
     5  Sr   0.006382  -0.020035   0.005341   0.064452   9.129196   0.067516
     6  F   -0.019366   0.317912  -0.020907  -0.027096   0.067516   8.960559
          Atomic-Atomic Spin Densities.
               1          2          3          4          5          6
     1  F    0.004027  -0.000179   0.000188   0.000157  -0.002017   0.000164
     2  B   -0.000179  -0.003366  -0.000141   0.001152  -0.008831   0.001245
     3  F    0.000188  -0.000141   0.003505   0.000126  -0.001764   0.000149
     4  F    0.000157   0.001152   0.000126   0.020653  -0.016770   0.000459
     5  Sr  -0.002017  -0.008831  -0.001764  -0.016770   1.043040  -0.017724
     6  F    0.000164   0.001245   0.000149   0.000459  -0.017724   0.019715
 Mulliken charges and spin densities:
               1          2
     1  F   -0.268400   0.002338
     2  B    0.414488  -0.010119
     3  F   -0.261639   0.002063
     4  F   -0.352978   0.005777
     5  Sr   0.747147   0.995933
     6  F   -0.278618   0.004007
 Sum of Mulliken charges =  -0.00000   1.00000
 Mulliken charges and spin densities with hydrogens summed into heavy atoms:
               1          2
     1  F   -0.268400   0.002338
     2  B    0.414488  -0.010119
     3  F   -0.261639   0.002063
     4  F   -0.352978   0.005777
     5  Sr   0.747147   0.995933
     6  F   -0.278618   0.004007
 Electronic spatial extent (au):  <R**2>=            800.7148
 Charge=             -0.0000 electrons
 Dipole moment (field-independent basis, Debye):
    X=             10.6343    Y=             -0.3634    Z=             -0.4772  Tot=             10.6512
 Quadrupole moment (field-independent basis, Debye-Ang):
   XX=            -54.1070   YY=            -52.2569   ZZ=            -51.6443
   XY=              0.3180   XZ=              0.4741   YZ=              0.3072
 Traceless Quadrupole moment (field-independent basis, Debye-Ang):
   XX=             -1.4376   YY=              0.4125   ZZ=              1.0251
   XY=              0.3180   XZ=              0.4741   YZ=              0.3072
 Octapole moment (field-independent basis, Debye-Ang**2):
  XXX=             33.6433  YYY=             -0.5751  ZZZ=             -1.3568  XYY=              4.7975
  XXY=              0.2079  XXZ=              0.2200  XZZ=              1.1060  YZZ=             -1.0277
  YYZ=             -0.0298  XYZ=             -2.3492
 Hexadecapole moment (field-independent basis, Debye-Ang**3):
 XXXX=          -1024.7174 YYYY=           -199.0047 ZZZZ=           -190.2382 XXXY=             -1.4179
 XXXZ=             -0.0629 YYYX=             -0.2007 YYYZ=              2.8667 ZZZX=              1.1930
 ZZZY=              0.6215 XXYY=           -214.5384 XXZZ=           -197.4980 YYZZ=            -65.4325
 XXYZ=             11.3822 YYXZ=             -0.1707 ZZXY=              1.2075
 N-N= 2.486841838247D+02 E-N=-1.569540480266D+03  KE= 4.310430038438D+02
                          Isotropic Fermi Contact Couplings
        Atom                 a.u.       MegaHertz       Gauss      10(-4) cm-1
     1  F(19)              0.00627      26.36903       9.40912       8.79576
     2  B(11)              0.00213       3.05125       1.08876       1.01779
     3  F(19)              0.00553      23.28753       8.30957       7.76788
     4  F(19)              0.06088     256.15770      91.40344      85.44501
     5  Sr(87)             0.00003      -0.00599      -0.00214      -0.00200
     6  F(19)              0.06751     284.06417     101.36116      94.75361
 --------------------------------------------------------
       Center         ----  Spin Dipole Couplings  ----
                      3XX-RR        3YY-RR        3ZZ-RR
 --------------------------------------------------------
     1   Atom        0.006258     -0.002436     -0.003822
     2   Atom        0.002867     -0.001691     -0.001176
     3   Atom        0.005220     -0.001679     -0.003542
     4   Atom        0.037201     -0.015698     -0.021503
     5   Atom        0.005400     -0.002799     -0.002601
     6   Atom        0.025171     -0.010081     -0.015090
 --------------------------------------------------------
                        XY            XZ            YZ
 --------------------------------------------------------
     1   Atom        0.002732     -0.001135     -0.001428
     2   Atom       -0.000026     -0.000002      0.000389
     3   Atom       -0.001704      0.001302     -0.001201
     4   Atom       -0.001078     -0.002105     -0.004264
     5   Atom        0.000566      0.000753      0.000179
     6   Atom        0.000634     -0.000269     -0.004120
 --------------------------------------------------------


 ---------------------------------------------------------------------------------
              Anisotropic Spin Dipole Couplings in Principal Axis System
 ---------------------------------------------------------------------------------

       Atom             a.u.   MegaHertz   Gauss  10(-4) cm-1        Axes

              Baa    -0.0047    -2.383    -0.850    -0.795 -0.0583  0.5741  0.8167
     1 F(19)  Bbb    -0.0025    -1.256    -0.448    -0.419 -0.3118  0.7667 -0.5612
              Bcc     0.0072     3.639     1.299     1.214  0.9483  0.2874 -0.1343
 
              Baa    -0.0019    -0.325    -0.116    -0.108  0.0046  0.8809 -0.4734
     2 B(11)  Bbb    -0.0010    -0.166    -0.059    -0.055  0.0036  0.4733  0.8809
              Bcc     0.0029     0.491     0.175     0.164  1.0000 -0.0058 -0.0010
 
              Baa    -0.0042    -2.085    -0.744    -0.696 -0.0528  0.4065  0.9121
     3 F(19)  Bbb    -0.0017    -0.864    -0.308    -0.288  0.2869  0.8811 -0.3760
              Bcc     0.0059     2.950     1.053     0.984  0.9565 -0.2418  0.1631
 
              Baa    -0.0239   -11.978    -4.274    -3.996  0.0387  0.4672  0.8833
     4 F(19)  Bbb    -0.0134    -6.751    -2.409    -2.252 -0.0006  0.8840 -0.4675
              Bcc     0.0373    18.729     6.683     6.247  0.9993 -0.0176 -0.0345
 
              Baa    -0.0029     0.067     0.024     0.022 -0.0170  0.8799 -0.4749
     5 Sr(87) Bbb    -0.0026     0.060     0.022     0.020 -0.1155  0.4701  0.8750
              Bcc     0.0055    -0.128    -0.046    -0.043  0.9932  0.0697  0.0937
 
              Baa    -0.0174    -8.742    -3.120    -2.916 -0.0018  0.4903  0.8715
     6 F(19)  Bbb    -0.0078    -3.907    -1.394    -1.303 -0.0208  0.8713 -0.4902
              Bcc     0.0252    12.649     4.513     4.219  0.9998  0.0190 -0.0086
 

 ---------------------------------------------------------------------------------

 PrsmSu:  requested number of processors reduced to:  22 ShMem   1 Linda.
   1 Symmetry operations used in ECPInt.
 ECPInt:  NShTT=     780 NPrTT=    3083 LenC2=     775 LenP2D=    2571.
 LDataN:  DoStor=T MaxTD1= 7 Len=  274
 Number of processors reduced to  24 by ecpmxn.
 D1PCM: PCM CHGder 1st derivatives, ID1Alg=3 FixD1E=F DoIter=F DoCFld=F I1PDM=0.
 CoulSu:  requested number of processors reduced to:  48 ShMem   1 Linda.
 CoulSu:  requested number of processors reduced to:  48 ShMem   1 Linda.
 CoulSu:  requested number of processors reduced to:  29 ShMem   1 Linda.
 CoulSu:  requested number of processors reduced to:  30 ShMem   1 Linda.
 Calling FoFJK, ICntrl=      2127 FMM=F ISym2X=0 I1Cent= 0 IOpClX= 1 NMat=1 NMatS=1 NMatT=0.
 Defaulting to unpruned grid for atomic number  38.
 Defaulting to unpruned grid for atomic number  38.
 Defaulting to unpruned grid for atomic number  38.
 Defaulting to unpruned grid for atomic number  38.
 Defaulting to unpruned grid for atomic number  38.
 Defaulting to unpruned grid for atomic number  38.
 Defaulting to unpruned grid for atomic number  38.
 Defaulting to unpruned grid for atomic number  38.
 Defaulting to unpruned grid for atomic number  38.
 Defaulting to unpruned grid for atomic number  38.
 Defaulting to unpruned grid for atomic number  38.
 Defaulting to unpruned grid for atomic number  38.
 Defaulting to unpruned grid for atomic number  38.
 Defaulting to unpruned grid for atomic number  38.
 Defaulting to unpruned grid for atomic number  38.
 Defaulting to unpruned grid for atomic number  38.
 Defaulting to unpruned grid for atomic number  38.
 Defaulting to unpruned grid for atomic number  38.
 Defaulting to unpruned grid for atomic number  38.
 Defaulting to unpruned grid for atomic number  38.
 Defaulting to unpruned grid for atomic number  38.
 Defaulting to unpruned grid for atomic number  38.
 Defaulting to unpruned grid for atomic number  38.
 Defaulting to unpruned grid for atomic number  38.
 Defaulting to unpruned grid for atomic number  38.
 Defaulting to unpruned grid for atomic number  38.
 Defaulting to unpruned grid for atomic number  38.
 Defaulting to unpruned grid for atomic number  38.
 Defaulting to unpruned grid for atomic number  38.
 Defaulting to unpruned grid for atomic number  38.
 Defaulting to unpruned grid for atomic number  38.
 Defaulting to unpruned grid for atomic number  38.
 Defaulting to unpruned grid for atomic number  38.
 Defaulting to unpruned grid for atomic number  38.
 Defaulting to unpruned grid for atomic number  38.
 Defaulting to unpruned grid for atomic number  38.
 Defaulting to unpruned grid for atomic number  38.
 Defaulting to unpruned grid for atomic number  38.
 Defaulting to unpruned grid for atomic number  38.
 Defaulting to unpruned grid for atomic number  38.
 Defaulting to unpruned grid for atomic number  38.
 Defaulting to unpruned grid for atomic number  38.
 Defaulting to unpruned grid for atomic number  38.
 Defaulting to unpruned grid for atomic number  38.
 Defaulting to unpruned grid for atomic number  38.
 Defaulting to unpruned grid for atomic number  38.
 Defaulting to unpruned grid for atomic number  38.
 Defaulting to unpruned grid for atomic number  38.
 Defaulting to unpruned grid for atomic number  38.
 ***** Axes restored to original set *****
 -------------------------------------------------------------------
 Center     Atomic                   Forces (Hartrees/Bohr)
 Number     Number              X              Y              Z
 -------------------------------------------------------------------
      1        9          -0.005473457   -0.000967262    0.004470210
      2        5           0.033880581    0.015010615   -0.014330400
      3        9          -0.001629205   -0.002941952   -0.000431535
      4        9          -0.014333519   -0.000082759    0.005342770
      5       38           0.004653051   -0.000366197   -0.001217021
      6        9          -0.017097452   -0.010652445    0.006165976
 -------------------------------------------------------------------
 Cartesian Forces:  Max     0.033880581 RMS     0.011406699

 GradGradGradGradGradGradGradGradGradGradGradGradGradGradGradGradGradGrad
 Berny optimization.
 Using GEDIIS/GDIIS optimizer.
 FormGI is forming the generalized inverse of G from B-inverse, IUseBI=4.
 Internal  Forces:  Max     0.020869423 RMS     0.006811818
 Search for a local minimum.
 Step number   2 out of a maximum of   10
 All quantities printed in internal units (Hartrees-Bohrs-Radians)
 Mixed Optimization -- RFO/linear search
 Update second derivatives using D2CorX and points    1    2
 DE= -1.14D-02 DEPred=-9.10D-03 R= 1.25D+00
 TightC=F SS=  1.41D+00  RLast= 2.97D-01 DXNew= 5.0454D-01 8.9193D-01
 Trust test= 1.25D+00 RLast= 2.97D-01 DXMaxT set to 5.05D-01
 The second derivative matrix:
                          R1        R2        R3        R4        R5
           R1           0.43744
           R2          -0.00034   0.47449
           R3          -0.00523  -0.00583   0.25441
           R4          -0.01508  -0.00452  -0.01676   0.02658
           R5           0.03019   0.01408   0.05926   0.01188   0.47679
           R6           0.00015  -0.00050  -0.00263  -0.00242   0.00696
           R7           0.01289   0.00501   0.02018   0.00073  -0.02503
           A1           0.00326   0.00095   0.00347  -0.00120  -0.00219
           A2           0.02433   0.00768   0.02906  -0.00630  -0.02432
           A3           0.00549   0.00166   0.00617  -0.00176  -0.00449
           A4          -0.01389  -0.00523  -0.02089  -0.00006   0.02478
           A5           0.00075   0.00000  -0.00029  -0.00120   0.00226
           A6          -0.00841  -0.00235  -0.00848   0.00351   0.00445
           A7          -0.00254   0.00076   0.00492   0.00741  -0.01762
           A8          -0.01112  -0.00400  -0.01579   0.00074   0.01748
           A9          -0.00364  -0.00147  -0.00597  -0.00043   0.00773
           D1          -0.01681  -0.00517  -0.01935   0.00497   0.01497
           D2           0.00891   0.00273   0.01020  -0.00268  -0.00780
           D3          -0.01134  -0.00335  -0.01239   0.00392   0.00840
           D4           0.01016   0.00312   0.01171  -0.00299  -0.00908
                          R6        R7        A1        A2        A3
           R6           0.03708
           R7           0.00255   0.06810
           A1           0.00051  -0.00002   0.25029
           A2           0.00407  -0.00305   0.00158   0.25725
           A3           0.00089  -0.00033   0.00043   0.00220   0.25062
           A4          -0.00268   0.00568  -0.00013   0.00204   0.00008
           A5           0.00003   0.00099   0.00026   0.00193   0.00044
           A6          -0.00128  -0.00038  -0.00082  -0.00475  -0.00125
           A7           0.00023  -0.00697  -0.00159  -0.01218  -0.00271
           A8          -0.00207   0.00369  -0.00027   0.00030  -0.00022
           A9          -0.00074   0.00193   0.00005   0.00123   0.00017
           D1          -0.00275   0.00144  -0.00122  -0.00604  -0.00175
           D2           0.00146  -0.00071   0.00066   0.00328   0.00094
           D3          -0.00180   0.00036  -0.00094  -0.00504  -0.00139
           D4           0.00166  -0.00088   0.00073   0.00363   0.00105
                          A4        A5        A6        A7        A8
           A4           0.24471
           A5          -0.00107   0.25007
           A6           0.00079  -0.00067   0.25234
           A7           0.00742  -0.00025   0.00404   0.25041
           A8          -0.00334  -0.00087   0.00105   0.00584   0.24801
           A9          -0.00185  -0.00028  -0.00001   0.00200  -0.00124
           D1          -0.00072  -0.00133   0.00360   0.00833   0.00033
           D2           0.00033   0.00071  -0.00193  -0.00441  -0.00021
           D3           0.00016  -0.00090   0.00273   0.00555   0.00071
           D4           0.00045   0.00081  -0.00217  -0.00504  -0.00019
                          A9        D1        D2        D3        D4
           A9           0.24938
           D1          -0.00066   0.00717
           D2           0.00033  -0.00264   0.02855
           D3          -0.00027   0.00394  -0.00212   0.03020
           D4           0.00040  -0.00293   0.00159  -0.00237   0.00406
 ITU=  1  0
 Use linear search instead of GDIIS.
     Eigenvalues ---    0.03378   0.05500   0.07138   0.10348   0.14307
     Eigenvalues ---    0.19865   0.21339   0.25026   0.28949   0.43547
     Eigenvalues ---    0.47109   0.49812
 RFO step:  Lambda=-2.81473712D-03 EMin= 3.37751741D-02
 Quartic linear search produced a step of  0.41750.
 Iteration  1 RMS(Cart)=  0.04273457 RMS(Int)=  0.00207923
 Iteration  2 RMS(Cart)=  0.00115274 RMS(Int)=  0.00161578
 Iteration  3 RMS(Cart)=  0.00000211 RMS(Int)=  0.00161578
 Iteration  4 RMS(Cart)=  0.00000001 RMS(Int)=  0.00161578
 Variable       Old X    -DE/DX   Delta X   Delta X   Delta X     New X
                                 (Linear)    (Quad)   (Total)
    R1        2.61195  -0.00329  -0.02751   0.00753  -0.01998   2.59197
    R2        2.60236  -0.00264  -0.00905  -0.00185  -0.01091   2.59145
    R3        2.77217  -0.01402  -0.06049  -0.02616  -0.08576   2.68640
    R4        6.02890   0.00146   0.02509  -0.02703  -0.00564   6.02326
    R5        2.61929   0.02087   0.03411   0.03132   0.06647   2.68576
    R6        5.10833  -0.00535  -0.05951  -0.08309  -0.14081   4.96753
    R7        4.65053   0.00504   0.05653   0.04403   0.10229   4.75282
    A1        1.96266  -0.00009  -0.00094  -0.00043  -0.00194   1.96073
    A2        1.86046   0.01118   0.00295   0.06557   0.06801   1.92847
    A3        2.11530   0.00070  -0.00058  -0.00198  -0.00258   2.11272
    A4        1.95888  -0.00824  -0.01531  -0.02964  -0.04546   1.91342
    A5        1.90750   0.00103  -0.00367   0.01327   0.01098   1.91848
    A6        2.20491  -0.00088   0.00394   0.00075   0.00331   2.20822
    A7        1.94423  -0.00402   0.02491  -0.04883  -0.02346   1.92077
    A8        1.82208   0.00127  -0.00932   0.00789  -0.00543   1.81665
    A9        0.89915   0.00185  -0.00556   0.01015   0.00162   0.90077
    D1       -1.58910   0.00010   0.02778  -0.00185   0.02653  -1.56258
    D2       -2.05660   0.00004  -0.00286   0.00400   0.00155  -2.05505
    D3       -2.09997  -0.00183   0.02113  -0.03982  -0.01892  -2.11889
    D4        0.02615   0.00141  -0.01192   0.02736   0.01572   0.04187
         Item               Value     Threshold  Converged?
 Maximum Force            0.020869     0.000450     NO 
 RMS     Force            0.006812     0.000300     NO 
 Maximum Displacement     0.082325     0.001800     NO 
 RMS     Displacement     0.042615     0.001200     NO 
 Predicted change in Energy=-2.900778D-03
 GradGradGradGradGradGradGradGradGradGradGradGradGradGradGradGradGradGrad

                          Input orientation:                          
 ---------------------------------------------------------------------
 Center     Atomic      Atomic             Coordinates (Angstroms)
 Number     Number       Type             X           Y           Z
 ---------------------------------------------------------------------
      1          9           0        4.321342    6.079897    2.413454
      2          5           0        4.638707    5.890331    3.734311
      3          9           0        4.521386    7.042220    4.469127
      4          9           0        5.954717    5.367605    3.859902
      5         38           0        5.386201    2.998474    4.846859
      6          9           0        3.809426    4.875253    4.283708
 ---------------------------------------------------------------------
                    Distance matrix (angstroms):
                    1          2          3          4          5
     1  F    0.000000
     2  B    1.371612   0.000000
     3  F    2.278569   1.371338   0.000000
     4  F    2.295101   1.421583   2.286904   0.000000
     5  Sr   4.068237   3.187373   4.152406   2.628702   0.000000
     6  F    2.282778   1.421242   2.288452   2.241494   2.515086
                    6
     6  F    0.000000
 Stoichiometry    BF4Sr(2)
 Framework group  C1[X(BF4Sr)]
 Deg. of freedom    12
 Full point group                 C1      NOp   1
 Largest Abelian subgroup         C1      NOp   1
 Largest concise Abelian subgroup C1      NOp   1
                         Standard orientation:                         
 ---------------------------------------------------------------------
 Center     Atomic      Atomic             Coordinates (Angstroms)
 Number     Number       Type             X           Y           Z
 ---------------------------------------------------------------------
      1          9           0       -2.265160    1.163009    0.186232
      2          5           0       -1.558387    0.002078    0.001756
      3          9           0       -2.375206   -1.072825   -0.238988
      4          9           0       -0.730797   -0.260943    1.127283
      5         38           0        1.628984    0.000630   -0.001029
      6          9           0       -0.640998    0.166944   -1.071158
 ---------------------------------------------------------------------
 Rotational constants (GHZ):           5.2062496           0.9544413           0.9513842
 Standard basis: def2SVP (5D, 7F)
 There are   100 symmetry adapted cartesian basis functions of A   symmetry.
 There are    93 symmetry adapted basis functions of A   symmetry.
    93 basis functions,   179 primitive gaussians,   100 cartesian basis functions
    26 alpha electrons       25 beta electrons
       nuclear repulsion energy       249.6236404500 Hartrees.
 NAtoms=    6 NActive=    6 NUniq=    6 SFac= 1.00D+00 NAtFMM=   60 NAOKFM=F Big=F
 Integral buffers will be    131072 words long.
 Raffenetti 2 integral format.
 Two-electron integral symmetry is turned on.
 ------------------------------------------------------------------------------
 Polarizable Continuum Model (PCM)
 =================================
 Model                : PCM.
 Atomic radii         : UFF (Universal Force Field).
 Polarization charges : Total charges.
 Charge compensation  : None.
 Solution method      : On-the-fly selection.
 Cavity type          : Scaled VdW (van der Waals Surface) (Alpha=1.100).
 Cavity algorithm     : GePol (No added spheres)
                        Default sphere list used, NSphG=    6.
                        Lebedev-Laikov grids with approx.  5.0 points / Ang**2.
                        Smoothing algorithm: York/Karplus (Gamma=1.0000).
                        Polarization charges: spherical gaussians, with
                                              point-specific exponents (IZeta= 3).
                        Self-potential: point-specific (ISelfS= 7).
                        Self-field    : sphere-specific E.n sum rule (ISelfD= 2).
 1st derivatives      : Analytical E(r).r(x)/FMM algorithm (CHGder, D1EAlg=3).
                        Cavity 1st derivative terms included.
 Solvent              : Water, Eps=  78.355300 Eps(inf)=   1.777849
 ------------------------------------------------------------------------------
 Spheres list:
 ISph  on   Nord     Re0    Alpha      Xe            Ye            Ze
    1   F      1    1.6820  1.100     -2.265160      1.163009      0.186232
    2   B      2    2.0415  1.100     -1.558387      0.002078      0.001756
    3   F      3    1.6820  1.100     -2.375206     -1.072825     -0.238988
    4   F      4    1.6820  1.100     -0.730797     -0.260943      1.127283
    5  Sr      5    1.8205  1.100      1.628984      0.000630     -0.001029
    6   F      6    1.6820  1.100     -0.640998      0.166944     -1.071158
 ------------------------------------------------------------------------------
 One-electron integrals computed using PRISM.
 PrsmSu:  requested number of processors reduced to:  30 ShMem   1 Linda.
   1 Symmetry operations used in ECPInt.
 ECPInt:  NShTT=     780 NPrTT=    3083 LenC2=     775 LenP2D=    2572.
 LDataN:  DoStor=T MaxTD1= 6 Len=  172
 Number of processors reduced to  27 by ecpmxn.
 NBasis=    93 RedAO= T EigKep=  1.59D-02  NBF=    93
 NBsUse=    93 1.00D-06 EigRej= -1.00D+00 NBFU=    93
 Defaulting to unpruned grid for atomic number  38.
 Initial guess from the checkpoint file:  "/home/zz1/proj/gauss/new/chk/Sr-UDIRAA-1/153.chk"
 B after Tr=     0.000000   -0.000000   -0.000000
         Rot=    0.943829   -0.330408   -0.003943    0.001144 Ang= -38.59 deg.
 Initial guess <Sx>= 0.0000 <Sy>= 0.0000 <Sz>= 0.5000 <S**2>= 0.7503 S= 0.5001
 ExpMin= 2.58D-02 ExpMax= 2.89D+03 ExpMxC= 4.35D+02 IAcc=3 IRadAn=         5 AccDes= 0.00D+00
 Harris functional with IExCor= 1009 and IRadAn=       5 diagonalized for initial guess.
 HarFok:  IExCor= 1009 AccDes= 0.00D+00 IRadAn=         5 IDoV= 1 UseB2=F ITyADJ=14
 ICtDFT=  3500011 ScaDFX=  1.000000  1.000000  1.000000  1.000000
 Defaulting to unpruned grid for atomic number  38.
 FoFCou: FMM=F IPFlag=           0 FMFlag=      100000 FMFlg1=           0
         NFxFlg=           0 DoJE=T BraDBF=F KetDBF=T FulRan=T
         wScrn=  0.000000 ICntrl=       500 IOpCl=  0 I1Cent=   200000004 NGrid=           0
         NMat0=    1 NMatS0=      1 NMatT0=    0 NMatD0=    1 NMtDS0=    0 NMtDT0=    0
 Petite list used in FoFCou.
 Keep R1 and R2 ints in memory in canonical form, NReq=64484939.
 Requested convergence on RMS density matrix=1.00D-08 within 128 cycles.
 Requested convergence on MAX density matrix=1.00D-06.
 Requested convergence on             energy=1.00D-06.
 No special actions if energy rises.
 Defaulting to unpruned grid for atomic number  38.
 Defaulting to unpruned grid for atomic number  38.
 Defaulting to unpruned grid for atomic number  38.
 Defaulting to unpruned grid for atomic number  38.
 Defaulting to unpruned grid for atomic number  38.
 Defaulting to unpruned grid for atomic number  38.
 Defaulting to unpruned grid for atomic number  38.
 Defaulting to unpruned grid for atomic number  38.
 Defaulting to unpruned grid for atomic number  38.
 Defaulting to unpruned grid for atomic number  38.
 Defaulting to unpruned grid for atomic number  38.
 Defaulting to unpruned grid for atomic number  38.
 Defaulting to unpruned grid for atomic number  38.
 Defaulting to unpruned grid for atomic number  38.
 Defaulting to unpruned grid for atomic number  38.
 Defaulting to unpruned grid for atomic number  38.
 Defaulting to unpruned grid for atomic number  38.
 Defaulting to unpruned grid for atomic number  38.
 Defaulting to unpruned grid for atomic number  38.
[...]
           vibrations may cause significant error
 Vibrational temperatures:     41.67   237.55   241.46   491.55   556.53
          (Kelvin)            735.07   745.32   785.67  1119.38  1408.51
                             1626.32  1766.76
 
 Zero-point correction=                           0.015447 (Hartree/Particle)
 Thermal correction to Energy=                    0.021865
 Thermal correction to Enthalpy=                  0.022809
 Thermal correction to Gibbs Free Energy=        -0.018360
 Sum of electronic and zero-point Energies=           -454.734564
 Sum of electronic and thermal Energies=              -454.728146
 Sum of electronic and thermal Enthalpies=            -454.727202
 Sum of electronic and thermal Free Energies=         -454.768371
 
                     E (Thermal)             CV                S
                      KCal/Mol        Cal/Mol-Kelvin    Cal/Mol-Kelvin
 Total                   13.720             19.919             86.647
 Electronic               0.000              0.000              1.377
 Translational            0.889              2.981             41.385
 Rotational               0.889              2.981             28.600
 Vibrational             11.943             13.957             15.285
 Vibration     1          0.593              1.984              5.900
 Vibration     2          0.624              1.885              2.490
 Vibration     3          0.625              1.882              2.460
 Vibration     4          0.721              1.592              1.204
 Vibration     5          0.755              1.498              1.012
 Vibration     6          0.866              1.226              0.631
 Vibration     7          0.873              1.210              0.615
 Vibration     8          0.901              1.148              0.552
                       Q            Log10(Q)             Ln(Q)
 Total Bot       0.278569D+09          8.444933         19.445177
 Total V=0       0.354989D+16         15.550214         35.805692
 Vib (Bot)       0.385719D-05         -5.413729        -12.465572
 Vib (Bot)    1  0.715005D+01          0.854309          1.967119
 Vib (Bot)    2  0.122251D+01          0.087251          0.200903
 Vib (Bot)    3  0.120169D+01          0.079793          0.183731
 Vib (Bot)    4  0.542933D+00         -0.265253         -0.610769
 Vib (Bot)    5  0.465193D+00         -0.332367         -0.765303
 Vib (Bot)    6  0.318571D+00         -0.496794         -1.143911
 Vib (Bot)    7  0.312161D+00         -0.505621         -1.164235
 Vib (Bot)    8  0.288470D+00         -0.539899         -1.243163
 Vib (V=0)       0.491532D+02          1.691552          3.894943
 Vib (V=0)    1  0.766751D+01          0.884654          2.036992
 Vib (V=0)    2  0.182080D+01          0.260263          0.599277
 Vib (V=0)    3  0.180156D+01          0.255649          0.588654
 Vib (V=0)    4  0.123809D+01          0.092752          0.213570
 Vib (V=0)    5  0.118294D+01          0.072962          0.168001
 Vib (V=0)    6  0.109286D+01          0.038566          0.088801
 Vib (V=0)    7  0.108944D+01          0.037205          0.085668
 Vib (V=0)    8  0.107725D+01          0.032316          0.074410
 Electronic      0.200000D+01          0.301030          0.693147
 Translational   0.909223D+08          7.958670         18.325516
 Rotational      0.397157D+06          5.598962         12.892086
 ***** Axes restored to original set *****
 -------------------------------------------------------------------
 Center     Atomic                   Forces (Hartrees/Bohr)
 Number     Number              X              Y              Z
 -------------------------------------------------------------------
      1        9          -0.000046641    0.000150934    0.000066367
      2        5           0.000021276   -0.000153094   -0.000119933
      3        9           0.000081927   -0.000030828    0.000118266
      4        9          -0.000073590    0.000024440    0.000031029
      5       38          -0.000039152    0.000046625   -0.000103239
      6        9           0.000056179   -0.000038077    0.000007511
 -------------------------------------------------------------------
 Cartesian Forces:  Max     0.000153094 RMS     0.000080031
 FormGI is forming the generalized inverse of G from B-inverse, IUseBI=4.

 GradGradGradGradGradGradGradGradGradGradGradGradGradGradGradGradGradGrad
 Berny optimization.
 Internal  Forces:  Max     0.000110603 RMS     0.000046887
 Search for a local minimum.
 Step number   1 out of a maximum of    2
 All quantities printed in internal units (Hartrees-Bohrs-Radians)
 Second derivative matrix not updated -- analytic derivatives used.
 The second derivative matrix:
                          R1        R2        R3        R4        R5
           R1           0.36863
           R2           0.04034   0.37064
           R3           0.03621   0.03527   0.25485
           R4           0.01273   0.01621  -0.00187   0.04998
           R5           0.03593   0.03574   0.02297  -0.00334   0.25510
           R6          -0.00929  -0.01194   0.01454  -0.01868   0.00396
           R7          -0.00950  -0.01082   0.00251  -0.01724   0.01477
           A1           0.01259   0.02022  -0.01652   0.00716  -0.02202
           A2           0.01311  -0.01865   0.03913   0.00699  -0.03844
           A3           0.00170  -0.02456   0.01343  -0.00810   0.01517
           A4           0.01366  -0.01871  -0.03005   0.00543   0.03104
           A5          -0.00570   0.00880   0.00123   0.01538  -0.01514
           A6          -0.01429   0.00434   0.00310   0.00094   0.00684
           A7          -0.02429   0.01849  -0.01899   0.00870   0.01740
           A8          -0.01127  -0.01313   0.02891  -0.04786   0.03153
           A9           0.01068   0.01017   0.05996  -0.01577   0.06084
           D1           0.00067  -0.00401  -0.01894  -0.00374   0.02458
           D2           0.02416  -0.01179  -0.00821   0.00399  -0.00766
           D3           0.00110   0.00704  -0.01698   0.00388   0.00446
           D4           0.01621  -0.01256   0.00381   0.00102  -0.00643
                          R6        R7        A1        A2        A3
           R6           0.03489
           R7           0.00618   0.03367
           A1          -0.00596  -0.00086   0.07792
           A2          -0.00963   0.00054  -0.02335   0.16213
           A3           0.00530   0.00354  -0.05320   0.02825   0.04248
           A4           0.00097  -0.00833  -0.02860  -0.09603   0.02825
           A5          -0.01489  -0.00378   0.00025   0.00935  -0.00358
           A6           0.00066  -0.00267  -0.02472  -0.00488   0.01072
           A7           0.00257  -0.01345  -0.02385  -0.04059  -0.00406
           A8           0.02969   0.02804  -0.01053  -0.00990   0.01022
           A9           0.01064   0.00990  -0.01038  -0.00277   0.00825
           D1           0.00695  -0.00289  -0.01583  -0.01554   0.00958
           D2           0.00001  -0.00450   0.01663   0.01355   0.00053
           D3           0.00131  -0.00514   0.01469  -0.02218  -0.01622
           D4          -0.00176   0.00019   0.00147   0.02416   0.01137
                          A4        A5        A6        A7        A8
           A4           0.15108
           A5          -0.00792   0.02353
           A6           0.00034   0.00334   0.01400
           A7          -0.00863  -0.00821   0.02790   0.09010
           A8          -0.00759  -0.01840   0.00031  -0.00735   0.05909
           A9          -0.00200  -0.00773   0.00213  -0.00202   0.02793
           D1           0.01487  -0.02397   0.00625   0.03728   0.00502
           D2           0.01738  -0.01354  -0.01715  -0.02877  -0.00721
           D3          -0.00653  -0.01026   0.00154   0.02680  -0.00430
           D4           0.01707  -0.00198  -0.01283  -0.03786  -0.00308
                          A9        D1        D2        D3        D4
           A9           0.03066
           D1           0.00255   0.03867
           D2          -0.00521   0.00766   0.03318
           D3          -0.00355   0.01802   0.00169   0.01653
           D4          -0.00150  -0.00690   0.02175  -0.01000   0.02182
 ITU=  0
     Eigenvalues ---   -0.00308   0.01893   0.02274   0.06800   0.11793
     Eigenvalues ---    0.14513   0.14815   0.17574   0.30625   0.32835
     Eigenvalues ---    0.35227   0.44852
 Eigenvalue     1 is  -3.08D-03 should be greater than     0.000000 Eigenvector:
                          D3        A3        A6        D4        D1
   1                    0.56776   0.45979  -0.45692  -0.37458  -0.33768
                          R6        D2        A4        A7        R7
   1                   -0.02842   0.02310   0.01974  -0.01820  -0.01692
 Angle between quadratic step and forces=  51.65 degrees.
 Linear search not attempted -- first point.
 Iteration  1 RMS(Cart)=  0.01354302 RMS(Int)=  0.00012849
 Iteration  2 RMS(Cart)=  0.00008122 RMS(Int)=  0.00003967
 Iteration  3 RMS(Cart)=  0.00000000 RMS(Int)=  0.00003967
 Variable       Old X    -DE/DX   Delta X   Delta X   Delta X     New X
                                 (Linear)    (Quad)   (Total)
    R1        2.59671  -0.00001   0.00000  -0.00056  -0.00056   2.59615
    R2        2.59434   0.00001   0.00000   0.00064   0.00064   2.59498
    R3        2.70598  -0.00007   0.00000  -0.00033  -0.00031   2.70567
    R4        5.99397  -0.00004   0.00000  -0.00122  -0.00132   5.99265
    R5        2.70573  -0.00001   0.00000  -0.00008  -0.00006   2.70567
    R6        4.81984  -0.00001   0.00000  -0.00211  -0.00206   4.81778
    R7        4.82101  -0.00005   0.00000  -0.00254  -0.00249   4.81853
    A1        1.96792  -0.00005   0.00000  -0.00037  -0.00036   1.96756
    A2        1.91741   0.00008   0.00000   0.00112   0.00114   1.91855
    A3        2.11323   0.00011   0.00000   0.01847   0.01846   2.13169
    A4        1.91775   0.00003   0.00000   0.00099   0.00101   1.91877
    A5        1.92221  -0.00004   0.00000  -0.00108  -0.00105   1.92116
    A6        2.20203  -0.00006   0.00000  -0.01810  -0.01810   2.18394
    A7        1.92160  -0.00001   0.00000  -0.00070  -0.00068   1.92092
    A8        1.81055  -0.00001   0.00000   0.00009  -0.00002   1.81054
    A9        0.91463  -0.00001   0.00000   0.00043   0.00039   0.91502
    D1       -1.53935   0.00001   0.00000  -0.01272  -0.01273  -1.55207
    D2       -2.05646   0.00005   0.00000   0.00154   0.00155  -2.05491
    D3       -2.10786   0.00007   0.00000   0.02250   0.02251  -2.08535
    D4        0.03537  -0.00001   0.00000  -0.01442  -0.01442   0.02095
         Item               Value     Threshold  Converged?
 Maximum Force            0.000111     0.000450     YES
 RMS     Force            0.000047     0.000300     YES
 Maximum Displacement     0.031604     0.001800     NO 
 RMS     Displacement     0.013536     0.001200     NO 
 Predicted change in Energy=-7.366755D-06
                           ----------------------------
                           ! Non-Optimized Parameters !
                           ! (Angstroms and Degrees)  !
 --------------------------                            --------------------------
 ! Name  Definition              Value          Derivative Info.                !
 --------------------------------------------------------------------------------
 ! R1    R(1,2)                  1.3738         -DE/DX =    0.0                 !
 ! R2    R(2,3)                  1.3732         -DE/DX =    0.0                 !
 ! R3    R(2,4)                  1.4318         -DE/DX =   -0.0001              !
 ! R4    R(2,5)                  3.1712         -DE/DX =    0.0                 !
 ! R5    R(2,6)                  1.4318         -DE/DX =    0.0                 !
 ! R6    R(4,5)                  2.5495         -DE/DX =    0.0                 !
 ! R7    R(5,6)                  2.5499         -DE/DX =    0.0                 !
 ! A1    A(1,2,3)              112.733          -DE/DX =   -0.0001              !
 ! A2    A(1,2,4)              109.9246         -DE/DX =    0.0001              !
 ! A3    A(1,2,5)              122.1367         -DE/DX =    0.0001              !
 ! A4    A(1,2,6)              109.9371         -DE/DX =    0.0                 !
 ! A5    A(3,2,4)              110.0741         -DE/DX =    0.0                 !
 ! A6    A(3,2,5)              125.1303         -DE/DX =   -0.0001              !
 ! A7    A(3,2,6)              110.0606         -DE/DX =    0.0                 !
 ! A8    A(4,2,6)              103.736          -DE/DX =    0.0                 !
 ! A9    A(4,5,6)               52.4268         -DE/DX =    0.0                 !
 ! D1    D(3,2,5,4)            -88.9271         -DE/DX =    0.0                 !
 ! D2    D(3,2,6,4)           -117.7377         -DE/DX =    0.0001              !
 ! D3    D(3,2,6,5)           -119.4816         -DE/DX =    0.0001              !
 ! D4    D(6,4,5,2)              1.2004         -DE/DX =    0.0                 !
 --------------------------------------------------------------------------------
 GradGradGradGradGradGradGradGradGradGradGradGradGradGradGradGradGradGrad


 ----------------------------------------------------------------------

 Electric dipole moment (input orientation):
 (Debye = 10**-18 statcoulomb cm , SI units = C m)
                  (au)            (Debye)         (10**-30 SI)
   Tot        0.403756D+01      0.102625D+02      0.342319D+02
   x          0.101477D+01      0.257928D+01      0.860356D+01
   y         -0.363864D+01     -0.924849D+01     -0.308497D+02
   z          0.142565D+01      0.362363D+01      0.120871D+02

 Dipole polarizability, Alpha (input orientation).
 (esu units = cm**3 , SI units = C**2 m**2 J**-1)
 Alpha(0;0):
               (au)            (10**-24 esu)      (10**-40 SI)
   iso        0.365862D+03      0.542151D+02      0.603224D+02
   aniso      0.279485D+03      0.414153D+02      0.460808D+02
   xx         0.379454D+03      0.562293D+02      0.625636D+02
   yx         0.488538D+02      0.723939D+01      0.805491D+01
   yy         0.243711D+03      0.361143D+02      0.401825D+02
   zx        -0.561985D+01     -0.832775D+00     -0.926587D+00
   zy         0.100865D+03      0.149467D+02      0.166304D+02
   zz         0.474420D+03      0.703017D+02      0.782212D+02

 ----------------------------------------------------------------------

 Dipole orientation:
     9          8.59308570         10.06745567         -6.69401448
     5          8.42816533         12.27697585         -5.33985558
     9          8.27191434         14.37496784         -6.85794811
     9         10.54613785         12.49162808         -3.66939597
    38          8.43052986         12.24009217          0.65400356
     9          6.30099263         12.17650390         -3.67071570

 Electric dipole moment (dipole orientation):
 (Debye = 10**-18 statcoulomb cm , SI units = C m)
                  (au)            (Debye)         (10**-30 SI)
   Tot        0.403756D+01      0.102625D+02      0.342319D+02
   x          0.000000D+00      0.000000D+00      0.000000D+00
   y          0.000000D+00      0.000000D+00      0.000000D+00
   z          0.403756D+01      0.102625D+02      0.342319D+02

 Dipole polarizability, Alpha (dipole orientation).
 (esu units = cm**3 , SI units = C**2 m**2 J**-1)
 Alpha(0;0):
               (au)            (10**-24 esu)      (10**-40 SI)
   iso        0.365862D+03      0.542151D+02      0.603224D+02
   aniso      0.279485D+03      0.414153D+02      0.460808D+02
   xx         0.391447D+03      0.580065D+02      0.645410D+02
   yx        -0.101161D+02     -0.149905D+01     -0.166792D+01
   yy         0.512408D+03      0.759311D+02      0.844847D+02
   zx        -0.595470D+00     -0.882396D-01     -0.981798D-01
   zy         0.737829D+01      0.109335D+01      0.121652D+01
   zz         0.193729D+03      0.287077D+02      0.319416D+02

 ----------------------------------------------------------------------
 1\1\GINC-3090\Freq\UM062X\def2SVP\B1F4Sr1(2)\ZZ1\08-Apr-2023\0\\#N Geo
 m=AllCheck Guess=TCheck SCRF=Check GenChk UM062X/def2SVP Freq\\Sr-UDIR
 AA-1\\0,2\F,4.3364667996,6.0833240911,2.4074448449\B,4.6290920332,5.89
 03603837,3.7361083252\F,4.534204506,7.0443262528,4.4737506607\F,5.9387
 361199,5.3267527164,3.8689118337\Sr,5.4241957945,3.0243389263,4.838158
 8733\F,3.7690847468,4.8846776298,4.2829854621\\Version=ES64L-G16RevA.0
 3\State=2-A\HF=-454.7500109\S2=0.750288\S2-1=0.\S2A=0.75\RMSD=4.840e-1
 0\RMSF=8.003e-05\ZeroPoint=0.0154473\Thermal=0.0218646\Dipole=1.014768
 4,-3.6386378,1.4256469\DipoleDeriv=-0.5162739,0.0666625,-0.1429369,0.0
 507918,-0.6191021,0.1122827,-0.1598876,0.1955274,-1.1038938,1.8031485,
 -0.1707535,0.0857924,-0.1759609,2.4045375,-0.2242264,0.0801792,-0.1969
 654,1.9591656,-0.4870671,0.0688371,0.0027828,0.0837705,-1.07472,-0.203
 7271,0.0185363,-0.2808918,-0.6755482,-0.8939567,0.2675995,-0.0633708,0
 .1769022,-0.934653,0.22605,-0.0322067,0.2106636,-0.431894,0.8244245,-0
 .1451362,0.0280111,-0.137443,1.2758979,-0.2002134,0.0365692,-0.2344989
 ,0.7301544,-0.7281902,-0.0866391,0.0897312,0.0025232,-1.0511685,0.2914
 08,0.0568337,0.3076424,-0.4740359\Polar=379.4542676,48.8538257,243.711
 0809,-5.619846,100.8650591,474.4195656\Quadrupole=0.7243183,-0.7959493
 ,0.0716311,0.3988132,-0.2146112,0.3291771\PG=C01 [X(B1F4Sr1)]\NImag=0\
 \0.06640751,-0.01058342,0.06345695,0.06508072,-0.04338261,0.34782398,-
 0.05829211,0.00691769,-0.04247372,0.33357284,0.00600425,-0.05611972,0.
 02399125,-0.01750058,0.44138133,-0.04343997,0.02878174,-0.24705283,0.0
 2263684,0.03013115,0.47818504,0.01054922,-0.00412152,-0.00681976,-0.05
 074877,0.01278280,0.00760659,0.05422085,-0.00173366,-0.00074767,-0.021
 62350,0.01186568,-0.19994714,-0.09791729,-0.01921156,0.27955224,-0.004
 26514,-0.03413815,-0.04789036,0.00665823,-0.09329959,-0.11475360,-0.01
 094225,0.14117882,0.14647284,-0.02375621,0.01511604,-0.02656341,-0.142
 24930,0.03937053,-0.00957968,-0.01543706,0.02754277,0.00917326,0.25468
 193,0.01908045,0.00119080,0.01596342,0.02504744,-0.06282821,0.00241580
 ,0.03815917,-0.03068870,-0.01302730,-0.06122642,0.09698826,-0.03696736
 ,0.01656531,-0.01782437,-0.00357486,0.00132187,-0.05171153,0.01317545,
 -0.01251663,0.00626429,0.00964304,-0.01394314,0.05752422,-0.00139415,-
 0.00113285,0.00165557,0.01278432,0.01106558,-0.00576716,-0.00155481,-0
 .00195034,-0.00003814,-0.00928569,-0.00415784,0.00252207,0.01573837,-0
 .00191735,0.00271622,-0.00504077,0.01110493,-0.02667466,0.01254623,-0.
 00127034,0.00551634,0.00129550,-0.00641801,-0.01364761,0.00642331,-0.0
 0911720,0.04128002,0.00083360,-0.00097554,0.00136549,-0.00546999,0.011
 98081,0.00023990,0.00068437,-0.00226438,-0.00076711,0.00369925,0.00629
 336,-0.00221602,0.00173687,-0.01789464,0.00314003,0.00648559,-0.006196
 00,0.00912066,-0.09506638,-0.05172220,0.02854332,0.00297042,-0.0165129
 8,-0.00058595,-0.06395413,-0.01690274,0.01520156,-0.01628771,0.0076183
 1,-0.00148411,0.16585201,-0.01085035,-0.01049653,0.03009198,-0.0374347
 8,-0.09581198,0.02404315,-0.02633863,-0.05368489,-0.00200929,-0.014385
 12,0.00898594,0.00214852,0.00529305,-0.00919098,0.00286127,0.08371521,
 0.16019875,0.01875819,0.03314915,-0.03642197,0.02222342,0.02587536,-0.
 06490581,-0.00370438,-0.00685713,0.01067378,0.01362752,0.00229713,0.00
 796232,-0.00010916,0.00267099,-0.00176099,-0.05079548,-0.05713619,0.08
 445147\\0.00004664,-0.00015093,-0.00006637,-0.00002128,0.00015309,0.00
 011993,-0.00008193,0.00003083,-0.00011827,0.00007359,-0.00002444,-0.00
 003103,0.00003915,-0.00004663,0.00010324,-0.00005618,0.00003808,-0.000
 00751\\\@


 BRING ME INTO THE COMPANY OF THOSE WHO SEEK TRUTH,
 AND DELIVER ME FROM THOSE WHO HAVE FOUND IT.
 Job cpu time:       0 days  0 hours 16 minutes 16.5 seconds.
 Elapsed time:       0 days  0 hours  0 minutes 21.7 seconds.
 File lengths (MBytes):  RWF=     37 Int=      0 D2E=      0 Chk=      5 Scr=      1
 Normal termination of Gaussian 16 at Sat Apr  8 04:59:24 2023.
