 Entering Gaussian System, Link 0=g16
 Initial command:
 /home/pub/g16/l1.exe "/home/zz1/gauss/SCRDIR/Gau-3870715.inp" -scrdir="/home/zz1/gauss/SCRDIR/"
 Entering Link 1 = /home/pub/g16/l1.exe PID=   3870717.
  
 Copyright (c) 1988,1990,1992,1993,1995,1998,2003,2009,2016,
            Gaussian, Inc.  All Rights Reserved.
  
 This is part of the Gaussian(R) 16 program.  It is based on
 the Gaussian(R) 09 system (copyright 2009, Gaussian, Inc.),
 the Gaussian(R) 03 system (copyright 2003, Gaussian, Inc.),
 the Gaussian(R) 98 system (copyright 1998, Gaussian, Inc.),
 the Gaussian(R) 94 system (copyright 1995, Gaussian, Inc.),
 the Gaussian 92(TM) system (copyright 1992, Gaussian, Inc.),
 the Gaussian 90(TM) system (copyright 1990, Gaussian, Inc.),
 the Gaussian 88(TM) system (copyright 1988, Gaussian, Inc.),
 the Gaussian 86(TM) system (copyright 1986, Carnegie Mellon
 University), and the Gaussian 82(TM) system (copyright 1983,
 Carnegie Mellon University). Gaussian is a federally registered
 trademark of Gaussian, Inc.
  
 This software contains proprietary and confidential information,
 including trade secrets, belonging to Gaussian, Inc.
  
 This software is provided under written license and may be
 used, copied, transmitted, or stored only in accord with that
 written license.
  
 The following legend is applicable only to US Government
 contracts under FAR:
  
                    RESTRICTED RIGHTS LEGEND
  
 Use, reproduction and disclosure by the US Government is
 subject to restrictions as set forth in subparagraphs (a)
 and (c) of the Commercial Computer Software - Restricted
 Rights clause in FAR 52.227-19.
  
 Gaussian, Inc.
 340 Quinnipiac St., Bldg. 40, Wallingford CT 06492
  
  
 ---------------------------------------------------------------
 Warning -- This program may not be used in any manner that
 competes with the business of Gaussian, Inc. or will provide
 assistance to any competitor of Gaussian, Inc.  The licensee
 of this program is prohibited from giving any competitor of
 Gaussian, Inc. access to this program.  By using this program,
 the user acknowledges that Gaussian, Inc. is engaged in the
 business of creating and licensing software in the field of
 computational chemistry and represents and warrants to the
 licensee that it is not a competitor of Gaussian, Inc. and that
 it will not use this program in any manner prohibited above.
 ---------------------------------------------------------------
  

 Cite this work as:
 Gaussian 16, Revision A.03,
 M. J. Frisch, G. W. Trucks, H. B. Schlegel, G. E. Scuseria, 
 M. A. Robb, J. R. Cheeseman, G. Scalmani, V. Barone, 
 G. A. Petersson, H. Nakatsuji, X. Li, M. Caricato, A. V. Marenich, 
 J. Bloino, B. G. Janesko, R. Gomperts, B. Mennucci, H. P. Hratchian, 
 J. V. Ortiz, A. F. Izmaylov, J. L. Sonnenberg, D. Williams-Young, 
 F. Ding, F. Lipparini, F. Egidi, J. Goings, B. Peng, A. Petrone, 
 T. Henderson, D. Ranasinghe, V. G. Zakrzewski, J. Gao, N. Rega, 
 G. Zheng, W. Liang, M. Hada, M. Ehara, K. Toyota, R. Fukuda, 
 J. Hasegawa, M. Ishida, T. Nakajima, Y. Honda, O. Kitao, H. Nakai, 
 T. Vreven, K. Throssell, J. A. Montgomery, Jr., J. E. Peralta, 
 F. Ogliaro, M. J. Bearpark, J. J. Heyd, E. N. Brothers, K. N. Kudin, 
 V. N. Staroverov, T. A. Keith, R. Kobayashi, J. Normand, 
 K. Raghavachari, A. P. Rendell, J. C. Burant, S. S. Iyengar, 
 J. Tomasi, M. Cossi, J. M. Millam, M. Klene, C. Adamo, R. Cammi, 
 J. W. Ochterski, R. L. Martin, K. Morokuma, O. Farkas, 
 J. B. Foresman, and D. J. Fox, Gaussian, Inc., Wallingford CT, 2016.
 
 ******************************************
 Gaussian 16:  ES64L-G16RevA.03 25-Dec-2016
                 8-Jun-2023 
 ******************************************
 %chk=/home/zz1/proj/gauss/new/chk/Sr-WUDCAB-4/77.chk
 %CPU=0-48
 SetSPE:  set environment variable "MP_BIND" = "yes"
 SetSPE:  set environment variable "MP_BLIST" = "0,1,2,3,4,5,6,7,8,9,10,11,12,13,14,15,16,17,18,19,20,21,22,23,24,25,26,27,28,29,30,31,32,33,34,35,36,37,38,39,40,41,42,43,44,45,46,47,48"
 Will use up to   49 processors via shared memory.
 ----------------------------------------------------
 # M062X/Def2SVP opt(MaxCyc=10)/freq SCRF pop(Always)
 ----------------------------------------------------
 1/6=10,18=20,19=15,26=3,38=1/1,3;
 2/9=110,12=2,17=6,18=5,40=1/2;
 3/5=43,7=101,11=2,25=1,30=1,70=2201,71=1,74=-55/1,2,3;
 4//1;
 5/5=2,38=5/2;
 6/7=2,8=2,9=2,10=2,28=1/1;
 7//1,2,3,16;
 1/6=10,18=20,19=15,26=3/3(2);
 2/9=110/2;
 99//99;
 2/9=110/2;
 3/5=43,7=101,11=2,25=1,30=1,70=2205,71=1,74=-55/1,2,3;
 4/5=5,16=3,69=1/1;
 5/5=2,38=5/2;
 6/7=2,8=2,9=2,10=2,28=1/1;
 7//1,2,3,16;
 1/6=10,18=20,19=15,26=3/3(-6);
 2/9=110/2;
 6/7=2,8=2,9=2,10=2,19=2,28=1/1;
 99/9=1/99;
 -----------
 Sr-WUDCAB-4
 -----------
 Symbolic Z-matrix:
 Charge =  0 Multiplicity = 1
 O                     7.38882   8.56005   3.83965 
 P                     6.98759   7.99161   5.24079 
 O                     8.12877   6.94235   5.71265 
 O                     5.91972   6.96715   4.97773 
 O                     6.54754   8.835     6.14131 
 Sr                    4.57292   10.34711   6.23035 
 H                     7.77324   7.7203    3.32264 
 

 GradGradGradGradGradGradGradGradGradGradGradGradGradGradGradGradGradGrad
 Berny optimization.
 Initialization pass.
                           ----------------------------
                           !    Initial Parameters    !
                           ! (Angstroms and Degrees)  !
 --------------------------                            --------------------------
 ! Name  Definition              Value          Derivative Info.                !
 --------------------------------------------------------------------------------
 ! R1    R(1,2)                  1.5644         estimate D2E/DX2                !
 ! R2    R(1,7)                  1.0584         estimate D2E/DX2                !
 ! R3    R(2,3)                  1.6205         estimate D2E/DX2                !
 ! R4    R(2,4)                  1.503          estimate D2E/DX2                !
 ! R5    R(2,5)                  1.3099         estimate D2E/DX2                !
 ! R6    R(2,6)                  3.5154         estimate D2E/DX2                !
 ! R7    R(5,6)                  2.4887         estimate D2E/DX2                !
 ! A1    A(2,1,7)              104.0259         estimate D2E/DX2                !
 ! A2    A(1,2,3)              108.3888         estimate D2E/DX2                !
 ! A3    A(1,2,4)              105.8509         estimate D2E/DX2                !
 ! A4    A(1,2,5)              117.9003         estimate D2E/DX2                !
 ! A5    A(1,2,6)              100.6504         estimate D2E/DX2                !
 ! A6    A(3,2,4)               96.3134         estimate D2E/DX2                !
 ! A7    A(3,2,5)              116.9552         estimate D2E/DX2                !
 ! A8    A(3,2,6)              146.6799         estimate D2E/DX2                !
 ! A9    A(4,2,5)              108.6926         estimate D2E/DX2                !
 ! A10   A(4,2,6)               91.0289         estimate D2E/DX2                !
 ! D1    D(7,1,2,3)             40.1478         estimate D2E/DX2                !
 ! D2    D(7,1,2,4)            -62.2592         estimate D2E/DX2                !
 ! D3    D(7,1,2,5)            175.9166         estimate D2E/DX2                !
 ! D4    D(7,1,2,6)           -156.4104         estimate D2E/DX2                !
 --------------------------------------------------------------------------------
 Trust Radius=3.00D-01 FncErr=1.00D-07 GrdErr=1.00D-06 EigMax=2.50D+02 EigMin=1.00D-04
 Number of steps in this run=     10 maximum allowed number of steps=    100.
 GradGradGradGradGradGradGradGradGradGradGradGradGradGradGradGradGradGrad

                          Input orientation:                          
 ---------------------------------------------------------------------
 Center     Atomic      Atomic             Coordinates (Angstroms)
 Number     Number       Type             X           Y           Z
 ---------------------------------------------------------------------
      1          8           0        7.388820    8.560050    3.839650
      2         15           0        6.987590    7.991610    5.240790
      3          8           0        8.128770    6.942350    5.712650
      4          8           0        5.919720    6.967150    4.977730
      5          8           0        6.547540    8.835000    6.141310
      6         38           0        4.572920   10.347110    6.230350
      7          1           0        7.773240    7.720300    3.322640
 ---------------------------------------------------------------------
                    Distance matrix (angstroms):
                    1          2          3          4          5
     1  O    0.000000
     2  P    1.564386   0.000000
     3  O    2.583139   1.620460   0.000000
     4  O    2.447613   1.503019   2.328223   0.000000
     5  O    2.465966   1.309919   2.503230   2.288436   0.000000
     6  Sr   4.103453   3.515429   4.950199   3.847994   2.488680
     7  H    1.058422   2.090491   2.538455   2.596554   3.269526
                    6          7
     6  Sr   0.000000
     7  H    5.059343   0.000000
 Stoichiometry    HO4PSr
 Framework group  C1[X(HO4PSr)]
 Deg. of freedom    15
 Full point group                 C1      NOp   1
 Largest Abelian subgroup         C1      NOp   1
 Largest concise Abelian subgroup C1      NOp   1
                         Standard orientation:                         
 ---------------------------------------------------------------------
 Center     Atomic      Atomic             Coordinates (Angstroms)
 Number     Number       Type             X           Y           Z
 ---------------------------------------------------------------------
      1          8           0       -1.787817    1.508281   -0.121301
      2         15           0       -1.485764   -0.026223   -0.084368
      3          8           0       -2.821996   -0.821378   -0.540550
      4          8           0       -1.544766   -0.421485    1.364546
      5          8           0       -0.348513   -0.439337   -0.586249
      6         38           0        2.028467    0.005239    0.001839
      7          1           0       -2.770549    1.585630    0.264074
 ---------------------------------------------------------------------
 Rotational constants (GHZ):           5.2593344           0.7288421           0.7132479
 Standard basis: def2SVP (5D, 7F)
 There are   109 symmetry adapted cartesian basis functions of A   symmetry.
 There are   102 symmetry adapted basis functions of A   symmetry.
   102 basis functions,   198 primitive gaussians,   109 cartesian basis functions
    29 alpha electrons       29 beta electrons
       nuclear repulsion energy       336.9585299890 Hartrees.
 NAtoms=    7 NActive=    7 NUniq=    7 SFac= 1.00D+00 NAtFMM=   60 NAOKFM=F Big=F
 Integral buffers will be    131072 words long.
 Raffenetti 2 integral format.
 Two-electron integral symmetry is turned on.
 ------------------------------------------------------------------------------
 Polarizable Continuum Model (PCM)
 =================================
 Model                : PCM.
 Atomic radii         : UFF (Universal Force Field).
 Polarization charges : Total charges.
 Charge compensation  : None.
 Solution method      : On-the-fly selection.
 Cavity type          : Scaled VdW (van der Waals Surface) (Alpha=1.100).
 Cavity algorithm     : GePol (No added spheres)
                        Default sphere list used, NSphG=    7.
                        Lebedev-Laikov grids with approx.  5.0 points / Ang**2.
                        Smoothing algorithm: York/Karplus (Gamma=1.0000).
                        Polarization charges: spherical gaussians, with
                                              point-specific exponents (IZeta= 3).
                        Self-potential: point-specific (ISelfS= 7).
                        Self-field    : sphere-specific E.n sum rule (ISelfD= 2).
 1st derivatives      : Analytical E(r).r(x)/FMM algorithm (CHGder, D1EAlg=3).
                        Cavity 1st derivative terms included.
 Solvent              : Water, Eps=  78.355300 Eps(inf)=   1.777849
 ------------------------------------------------------------------------------
 Spheres list:
 ISph  on   Nord     Re0    Alpha      Xe            Ye            Ze
    1   O      1    1.7500  1.100     -1.787817      1.508281     -0.121301
    2   P      2    2.0735  1.100     -1.485764     -0.026223     -0.084368
    3   O      3    1.7500  1.100     -2.821996     -0.821378     -0.540550
    4   O      4    1.7500  1.100     -1.544766     -0.421485      1.364546
    5   O      5    1.7500  1.100     -0.348513     -0.439337     -0.586249
    6  Sr      6    1.8205  1.100      2.028467      0.005239      0.001839
    7   H      7    1.4430  1.100     -2.770549      1.585630      0.264074
 ------------------------------------------------------------------------------
 One-electron integrals computed using PRISM.
 PrsmSu:  requested number of processors reduced to:  30 ShMem   1 Linda.
   1 Symmetry operations used in ECPInt.
 ECPInt:  NShTT=     990 NPrTT=    4009 LenC2=     985 LenP2D=    3282.
 LDataN:  DoStor=T MaxTD1= 6 Len=  172
 Number of processors reduced to  26 by ecpmxn.
 NBasis=   102 RedAO= T EigKep=  8.44D-03  NBF=   102
 NBsUse=   102 1.00D-06 EigRej= -1.00D+00 NBFU=   102
 Defaulting to unpruned grid for atomic number  38.
 ExpMin= 2.58D-02 ExpMax= 8.00D+03 ExpMxC= 1.20D+03 IAcc=3 IRadAn=         5 AccDes= 0.00D+00
 Harris functional with IExCor= 1009 and IRadAn=       5 diagonalized for initial guess.
 HarFok:  IExCor= 1009 AccDes= 0.00D+00 IRadAn=         5 IDoV= 1 UseB2=F ITyADJ=14
 ICtDFT=  3500011 ScaDFX=  1.000000  1.000000  1.000000  1.000000
 Defaulting to unpruned grid for atomic number  38.
 FoFCou: FMM=F IPFlag=           0 FMFlag=      100000 FMFlg1=           0
         NFxFlg=           0 DoJE=T BraDBF=F KetDBF=T FulRan=T
         wScrn=  0.000000 ICntrl=       500 IOpCl=  0 I1Cent=   200000004 NGrid=           0
         NMat0=    1 NMatS0=      1 NMatT0=    0 NMatD0=    1 NMtDS0=    0 NMtDT0=    0
 Petite list used in FoFCou.
 Keep R1 ints in memory in canonical form, NReq=59585671.
 Requested convergence on RMS density matrix=1.00D-08 within 128 cycles.
 Requested convergence on MAX density matrix=1.00D-06.
 Requested convergence on             energy=1.00D-06.
 No special actions if energy rises.
 Defaulting to unpruned grid for atomic number  38.
 Defaulting to unpruned grid for atomic number  38.
 Defaulting to unpruned grid for atomic number  38.
 Defaulting to unpruned grid for atomic number  38.
 Defaulting to unpruned grid for atomic number  38.
 Defaulting to unpruned grid for atomic number  38.
 Defaulting to unpruned grid for atomic number  38.
 Defaulting to unpruned grid for atomic number  38.
 Defaulting to unpruned grid for atomic number  38.
 Defaulting to unpruned grid for atomic number  38.
 Defaulting to unpruned grid for atomic number  38.
 Defaulting to unpruned grid for atomic number  38.
 Defaulting to unpruned grid for atomic number  38.
 Defaulting to unpruned grid for atomic number  38.
 Defaulting to unpruned grid for atomic number  38.
 Defaulting to unpruned grid for atomic number  38.
 Defaulting to unpruned grid for atomic number  38.
 Defaulting to unpruned grid for atomic number  38.
 Defaulting to unpruned grid for atomic number  38.
 Defaulting to unpruned grid for atomic number  38.
 Defaulting to unpruned grid for atomic number  38.
 Defaulting to unpruned grid for atomic number  38.
 Defaulting to unpruned grid for atomic number  38.
 Defaulting to unpruned grid for atomic number  38.
 Defaulting to unpruned grid for atomic number  38.
 Defaulting to unpruned grid for atomic number  38.
 Defaulting to unpruned grid for atomic number  38.
 Defaulting to unpruned grid for atomic number  38.
 Defaulting to unpruned grid for atomic number  38.
 Defaulting to unpruned grid for atomic number  38.
 Defaulting to unpruned grid for atomic number  38.
 Defaulting to unpruned grid for atomic number  38.
 Defaulting to unpruned grid for atomic number  38.
 Defaulting to unpruned grid for atomic number  38.
 Defaulting to unpruned grid for atomic number  38.
 Defaulting to unpruned grid for atomic number  38.
 Defaulting to unpruned grid for atomic number  38.
 Defaulting to unpruned grid for atomic number  38.
 Defaulting to unpruned grid for atomic number  38.
 Defaulting to unpruned grid for atomic number  38.
 Defaulting to unpruned grid for atomic number  38.
 Defaulting to unpruned grid for atomic number  38.
 Defaulting to unpruned grid for atomic number  38.
 Defaulting to unpruned grid for atomic number  38.
 Defaulting to unpruned grid for atomic number  38.
 Defaulting to unpruned grid for atomic number  38.
 Defaulting to unpruned grid for atomic number  38.
 Defaulting to unpruned grid for atomic number  38.
 Defaulting to unpruned grid for atomic number  38.
 CoulSu:  requested number of processors reduced to:  42 ShMem   1 Linda.
 Inv3:  Mode=1 IEnd=     3358092.
 Iteration    1 A*A^-1 deviation from unit magnitude is 2.55D-15 for    411.
 Iteration    1 A*A^-1 deviation from orthogonality  is 1.65D-15 for   1026    464.
 Iteration    1 A^-1*A deviation from unit magnitude is 2.55D-15 for    411.
 Iteration    1 A^-1*A deviation from orthogonality  is 1.52D-15 for    968    638.
 CoulSu:  requested number of processors reduced to:  42 ShMem   1 Linda.
 CoulSu:  requested number of processors reduced to:  42 ShMem   1 Linda.
 CoulSu:  requested number of processors reduced to:  43 ShMem   1 Linda.
 CoulSu:  requested number of processors reduced to:  40 ShMem   1 Linda.
 Error on total polarization charges =  0.01191
 SCF Done:  E(RM062X) =  -673.157564812     A.U. after   14 cycles
            NFock= 14  Conv=0.58D-08     -V/T= 2.0356

 **********************************************************************

            Population analysis using the SCF density.

 **********************************************************************

 Orbital symmetries:
       Occupied  (A) (A) (A) (A) (A) (A) (A) (A) (A) (A) (A) (A)
                 (A) (A) (A) (A) (A) (A) (A) (A) (A) (A) (A) (A)
                 (A) (A) (A) (A) (A)
       Virtual   (A) (A) (A) (A) (A) (A) (A) (A) (A) (A) (A) (A)
                 (A) (A) (A) (A) (A) (A) (A) (A) (A) (A) (A) (A)
                 (A) (A) (A) (A) (A) (A) (A) (A) (A) (A) (A) (A)
                 (A) (A) (A) (A) (A) (A) (A) (A) (A) (A) (A) (A)
                 (A) (A) (A) (A) (A) (A) (A) (A) (A) (A) (A) (A)
                 (A) (A) (A) (A) (A) (A) (A) (A) (A) (A) (A) (A)
                 (A)
 The electronic state is 1-A.
 Alpha  occ. eigenvalues --  -78.03726 -19.60562 -19.53951 -19.44744 -19.44482
 Alpha  occ. eigenvalues --   -6.84623  -4.96925  -4.96495  -4.96323  -1.67384
 Alpha  occ. eigenvalues --   -1.14504  -1.07529  -0.94015  -0.93405  -0.93386
 Alpha  occ. eigenvalues --   -0.92708  -0.86987  -0.59432  -0.50113  -0.47543
 Alpha  occ. eigenvalues --   -0.45561  -0.41711  -0.39687  -0.35433  -0.28906
 Alpha  occ. eigenvalues --   -0.27701  -0.25676  -0.21698  -0.18890
 Alpha virt. eigenvalues --   -0.00843   0.03550   0.03741   0.04791   0.06532
 Alpha virt. eigenvalues --    0.06574   0.07746   0.08427   0.09275   0.13074
 Alpha virt. eigenvalues --    0.13151   0.14786   0.14930   0.15140   0.15918
 Alpha virt. eigenvalues --    0.17538   0.27905   0.29308   0.30322   0.33612
 Alpha virt. eigenvalues --    0.38957   0.40649   0.42273   0.51444   0.60983
 Alpha virt. eigenvalues --    0.69610   0.71072   0.77200   0.82337   0.83992
 Alpha virt. eigenvalues --    0.98759   1.01032   1.02621   1.07829   1.09612
 Alpha virt. eigenvalues --    1.10839   1.16856   1.21639   1.22786   1.26907
 Alpha virt. eigenvalues --    1.28728   1.33518   1.39859   1.40367   1.43278
 Alpha virt. eigenvalues --    1.47541   1.54234   1.56757   1.62591   1.70305
 Alpha virt. eigenvalues --    1.87254   2.12061   2.72123   2.73382   2.76666
 Alpha virt. eigenvalues --    2.79762   2.82517   2.86456   2.87767   2.88833
 Alpha virt. eigenvalues --    2.89900   2.93510   2.97361   3.08558   3.14507
 Alpha virt. eigenvalues --    3.21633   3.23968   3.30313   3.40988   3.54951
 Alpha virt. eigenvalues --    3.63830   3.68340  30.13581
          Condensed to atoms (all electrons):
               1          2          3          4          5          6
     1  O    8.033296   0.257167  -0.040557  -0.052432  -0.026006   0.029241
     2  P    0.257167  12.314743   0.527769   0.548129   0.471953  -0.012529
     3  O   -0.040557   0.527769   8.533936  -0.097880  -0.039152   0.013454
     4  O   -0.052432   0.548129  -0.097880   8.426307  -0.081968   0.067029
     5  O   -0.026006   0.471953  -0.039152  -0.081968   8.102310   0.126542
     6  Sr   0.029241  -0.012529   0.013454   0.067029   0.126542   8.150121
     7  H    0.294554   0.000931   0.008306   0.002738   0.003021  -0.005369
               7
     1  O    0.294554
     2  P    0.000931
     3  O    0.008306
     4  O    0.002738
     5  O    0.003021
     6  Sr  -0.005369
     7  H    0.449404
 Mulliken charges:
               1
     1  O   -0.495263
     2  P    0.891837
     3  O   -0.905876
     4  O   -0.811924
     5  O   -0.556701
     6  Sr   1.631511
     7  H    0.246415
 Sum of Mulliken charges =  -0.00000
 Mulliken charges with hydrogens summed into heavy atoms:
               1
     1  O   -0.248847
     2  P    0.891837
     3  O   -0.905876
     4  O   -0.811924
     5  O   -0.556701
     6  Sr   1.631511
 Electronic spatial extent (au):  <R**2>=            972.4581
 Charge=             -0.0000 electrons
 Dipole moment (field-independent basis, Debye):
    X=             32.3264    Y=              5.6866    Z=             -1.4381  Tot=             32.8542
 Quadrupole moment (field-independent basis, Debye-Ang):
   XX=            -39.9611   YY=            -53.3867   ZZ=            -58.7947
   XY=            -13.9961   XZ=              0.0156   YZ=              0.9760
 Traceless Quadrupole moment (field-independent basis, Debye-Ang):
   XX=             10.7531   YY=             -2.6725   ZZ=             -8.0805
   XY=            -13.9961   XZ=              0.0156   YZ=              0.9760
 Octapole moment (field-independent basis, Debye-Ang**2):
  XXX=            269.4795  YYY=              3.0291  ZZZ=            -14.6657  XYY=             47.1621
  XXY=             45.6500  XXZ=             11.2487  XZZ=             55.2819  YZZ=              7.4587
  YYZ=              2.5679  XYZ=             -1.2123
 Hexadecapole moment (field-independent basis, Debye-Ang**3):
 XXXX=          -1025.2925 YYYY=           -183.4866 ZZZZ=           -171.2772 XXXY=           -143.7390
 XXXZ=            -52.9374 YYYX=            -16.5176 YYYZ=              3.3635 ZZZX=             16.6635
 ZZZY=              4.2883 XXYY=           -200.0646 XXZZ=           -218.0332 YYZZ=            -57.3305
 XXYZ=             -1.8220 YYXZ=             -9.4264 ZZXY=            -12.7019
 N-N= 3.369585299890D+02 E-N=-2.266218585353D+03  KE= 6.500023831730D+02
 PrsmSu:  requested number of processors reduced to:  22 ShMem   1 Linda.
   1 Symmetry operations used in ECPInt.
 ECPInt:  NShTT=     990 NPrTT=    4009 LenC2=     985 LenP2D=    3282.
 LDataN:  DoStor=T MaxTD1= 7 Len=  274
 Number of processors reduced to  24 by ecpmxn.
 D1PCM: PCM CHGder 1st derivatives, ID1Alg=3 FixD1E=F DoIter=F DoCFld=F I1PDM=0.
 CoulSu:  requested number of processors reduced to:  48 ShMem   1 Linda.
 CoulSu:  requested number of processors reduced to:  48 ShMem   1 Linda.
 CoulSu:  requested number of processors reduced to:  29 ShMem   1 Linda.
 CoulSu:  requested number of processors reduced to:  30 ShMem   1 Linda.
 Calling FoFJK, ICntrl=      2127 FMM=F ISym2X=0 I1Cent= 0 IOpClX= 0 NMat=1 NMatS=1 NMatT=0.
 Defaulting to unpruned grid for atomic number  38.
 Defaulting to unpruned grid for atomic number  38.
 Defaulting to unpruned grid for atomic number  38.
 Defaulting to unpruned grid for atomic number  38.
 Defaulting to unpruned grid for atomic number  38.
 Defaulting to unpruned grid for atomic number  38.
 Defaulting to unpruned grid for atomic number  38.
 Defaulting to unpruned grid for atomic number  38.
 Defaulting to unpruned grid for atomic number  38.
 Defaulting to unpruned grid for atomic number  38.
 Defaulting to unpruned grid for atomic number  38.
 Defaulting to unpruned grid for atomic number  38.
 Defaulting to unpruned grid for atomic number  38.
 Defaulting to unpruned grid for atomic number  38.
 Defaulting to unpruned grid for atomic number  38.
 Defaulting to unpruned grid for atomic number  38.
 Defaulting to unpruned grid for atomic number  38.
 Defaulting to unpruned grid for atomic number  38.
 Defaulting to unpruned grid for atomic number  38.
 Defaulting to unpruned grid for atomic number  38.
 Defaulting to unpruned grid for atomic number  38.
 Defaulting to unpruned grid for atomic number  38.
 Defaulting to unpruned grid for atomic number  38.
 Defaulting to unpruned grid for atomic number  38.
 Defaulting to unpruned grid for atomic number  38.
 Defaulting to unpruned grid for atomic number  38.
 Defaulting to unpruned grid for atomic number  38.
 Defaulting to unpruned grid for atomic number  38.
 Defaulting to unpruned grid for atomic number  38.
 Defaulting to unpruned grid for atomic number  38.
 Defaulting to unpruned grid for atomic number  38.
 Defaulting to unpruned grid for atomic number  38.
 Defaulting to unpruned grid for atomic number  38.
 Defaulting to unpruned grid for atomic number  38.
 Defaulting to unpruned grid for atomic number  38.
 Defaulting to unpruned grid for atomic number  38.
 Defaulting to unpruned grid for atomic number  38.
 Defaulting to unpruned grid for atomic number  38.
 Defaulting to unpruned grid for atomic number  38.
 Defaulting to unpruned grid for atomic number  38.
 Defaulting to unpruned grid for atomic number  38.
 Defaulting to unpruned grid for atomic number  38.
 Defaulting to unpruned grid for atomic number  38.
 Defaulting to unpruned grid for atomic number  38.
 Defaulting to unpruned grid for atomic number  38.
 Defaulting to unpruned grid for atomic number  38.
 Defaulting to unpruned grid for atomic number  38.
 Defaulting to unpruned grid for atomic number  38.
 Defaulting to unpruned grid for atomic number  38.
 ***** Axes restored to original set *****
 -------------------------------------------------------------------
 Center     Atomic                   Forces (Hartrees/Bohr)
 Number     Number              X              Y              Z
 -------------------------------------------------------------------
      1        8           0.050376489   -0.007535582   -0.088993715
      2       15           0.157981582   -0.415804477   -0.178178888
      3        8           0.009213263    0.065385139   -0.010846265
      4        8          -0.075660500   -0.022071441   -0.037811589
      5        8          -0.126030929    0.333541106    0.282713276
      6       38           0.009404408   -0.010984297   -0.001324818
      7        1          -0.025284313    0.057469553    0.034441999
 -------------------------------------------------------------------
 Cartesian Forces:  Max     0.415804477 RMS     0.148745908

 GradGradGradGradGradGradGradGradGradGradGradGradGradGradGradGradGradGrad
 Berny optimization.
 FormGI is forming the generalized inverse of G from B-inverse, IUseBI=4.
 Internal  Forces:  Max     0.401765360 RMS     0.102803118
 Search for a local minimum.
 Step number   1 out of a maximum of   10
 All quantities printed in internal units (Hartrees-Bohrs-Radians)
 Mixed Optimization -- RFO/linear search
 Second derivative matrix not updated -- first step.
 ITU=  0
     Eigenvalues ---    0.03441   0.03884   0.09375   0.15168   0.16000
     Eigenvalues ---    0.19175   0.21827   0.25000   0.25000   0.25000
     Eigenvalues ---    0.38733   0.47457   0.58771   0.75685   1.83612
 RFO step:  Lambda=-1.84099828D-01 EMin= 3.44095420D-02
 Linear search not attempted -- first point.
 Maximum step size (   0.300) exceeded in Quadratic search.
    -- Step size scaled by   0.641
 Iteration  1 RMS(Cart)=  0.08122689 RMS(Int)=  0.00803241
 Iteration  2 RMS(Cart)=  0.00800524 RMS(Int)=  0.00490820
 Iteration  3 RMS(Cart)=  0.00016856 RMS(Int)=  0.00490765
 Iteration  4 RMS(Cart)=  0.00000424 RMS(Int)=  0.00490765
 Iteration  5 RMS(Cart)=  0.00000010 RMS(Int)=  0.00490765
 Variable       Old X    -DE/DX   Delta X   Delta X   Delta X     New X
                                 (Linear)    (Quad)   (Total)
    R1        2.95626   0.07348   0.00000   0.06105   0.06105   3.01731
    R2        2.00013  -0.07166   0.00000  -0.08041  -0.08041   1.91971
    R3        3.06223  -0.03900   0.00000  -0.03797  -0.03797   3.02425
    R4        2.84029   0.07546   0.00000   0.05142   0.05142   2.89172
    R5        2.47539   0.40177   0.00000   0.12838   0.13119   2.60658
    R6        6.64320   0.05582   0.00000   0.01733   0.01322   6.65642
    R7        4.70292  -0.07277   0.00000  -0.05347  -0.04917   4.65375
    A1        1.81559   0.00198   0.00000   0.00369   0.00369   1.81929
    A2        1.89174  -0.03036   0.00000  -0.05653  -0.06518   1.82656
    A3        1.84745  -0.01264   0.00000  -0.01046  -0.01317   1.83428
    A4        2.05775  -0.05303   0.00000  -0.12274  -0.13104   1.92671
    A5        1.75668  -0.03384   0.00000  -0.01063  -0.01035   1.74633
    A6        1.68099   0.09041   0.00000   0.16525   0.16322   1.84421
    A7        2.04125  -0.03046   0.00000  -0.00206  -0.01040   2.03085
    A8        2.56005   0.04414   0.00000   0.00354  -0.00130   2.55875
    A9        1.89704   0.07209   0.00000   0.09216   0.08749   1.98454
   A10        1.58875  -0.04555   0.00000  -0.03941  -0.03719   1.55156
    D1        0.70071   0.06024   0.00000   0.11468   0.10646   0.80717
    D2       -1.08663  -0.02442   0.00000  -0.04477  -0.04485  -1.13148
    D3        3.07032  -0.07370   0.00000  -0.07592  -0.06524   3.00509
    D4       -2.72988   0.03662   0.00000   0.00237  -0.00001  -2.72989
         Item               Value     Threshold  Converged?
 Maximum Force            0.401765     0.000450     NO 
 RMS     Force            0.102803     0.000300     NO 
 Maximum Displacement     0.198344     0.001800     NO 
 RMS     Displacement     0.082499     0.001200     NO 
 Predicted change in Energy=-8.890552D-02
 GradGradGradGradGradGradGradGradGradGradGradGradGradGradGradGradGradGrad

                          Input orientation:                          
 ---------------------------------------------------------------------
 Center     Atomic      Atomic             Coordinates (Angstroms)
 Number     Number       Type             X           Y           Z
 ---------------------------------------------------------------------
      1          8           0        7.412782    8.531390    3.858096
      2         15           0        6.958998    7.916064    5.259835
      3          8           0        8.182350    6.987351    5.709359
      4          8           0        5.814761    6.957612    4.922643
      5          8           0        6.600706    8.922028    6.132905
      6         38           0        4.571541   10.313328    6.239969
      7          1           0        7.777462    7.735798    3.342314
 ---------------------------------------------------------------------
                    Distance matrix (angstroms):
                    1          2          3          4          5
     1  O    0.000000
     2  P    1.596690   0.000000
     3  O    2.530508   1.600365   0.000000
     4  O    2.482682   1.530231   2.495052   0.000000
     5  O    2.446798   1.379343   2.534554   2.437494   0.000000
     6  Sr   4.113547   3.522427   4.937775   3.813368   2.462659
     7  H    1.015869   2.092669   2.515354   2.637273   3.252582
                    6          7
     6  Sr   0.000000
     7  H    5.031699   0.000000
 Stoichiometry    HO4PSr
 Framework group  C1[X(HO4PSr)]
 Deg. of freedom    15
 Full point group                 C1      NOp   1
 Largest Abelian subgroup         C1      NOp   1
 Largest concise Abelian subgroup C1      NOp   1
                         Standard orientation:                         
 ---------------------------------------------------------------------
 Center     Atomic      Atomic             Coordinates (Angstroms)
 Number     Number       Type             X           Y           Z
 ---------------------------------------------------------------------
      1          8           0       -1.818918    1.473184   -0.201797
      2         15           0       -1.501891   -0.082487   -0.032091
      3          8           0       -2.815072   -0.824057   -0.567629
      4          8           0       -1.479327   -0.322081    1.479099
      5          8           0       -0.317499   -0.403151   -0.662153
      6         38           0        2.019269    0.007024   -0.001878
      7          1           0       -2.757314    1.579225    0.172580
 ---------------------------------------------------------------------
 Rotational constants (GHZ):           5.0345528           0.7254430           0.7206120
 Standard basis: def2SVP (5D, 7F)
 There are   109 symmetry adapted cartesian basis functions of A   symmetry.
 There are   102 symmetry adapted basis functions of A   symmetry.
   102 basis functions,   198 primitive gaussians,   109 cartesian basis functions
    29 alpha electrons       29 beta electrons
       nuclear repulsion energy       331.9752217954 Hartrees.
 NAtoms=    7 NActive=    7 NUniq=    7 SFac= 1.00D+00 NAtFMM=   60 NAOKFM=F Big=F
 Integral buffers will be    131072 words long.
 Raffenetti 2 integral format.
 Two-electron integral symmetry is turned on.
 ------------------------------------------------------------------------------
 Polarizable Continuum Model (PCM)
 =================================
 Model                : PCM.
 Atomic radii         : UFF (Universal Force Field).
 Polarization charges : Total charges.
 Charge compensation  : None.
 Solution method      : On-the-fly selection.
 Cavity type          : Scaled VdW (van der Waals Surface) (Alpha=1.100).
 Cavity algorithm     : GePol (No added spheres)
                        Default sphere list used, NSphG=    7.
                        Lebedev-Laikov grids with approx.  5.0 points / Ang**2.
                        Smoothing algorithm: York/Karplus (Gamma=1.0000).
                        Polarization charges: spherical gaussians, with
                                              point-specific exponents (IZeta= 3).
                        Self-potential: point-specific (ISelfS= 7).
                        Self-field    : sphere-specific E.n sum rule (ISelfD= 2).
 1st derivatives      : Analytical E(r).r(x)/FMM algorithm (CHGder, D1EAlg=3).
                        Cavity 1st derivative terms included.
 Solvent              : Water, Eps=  78.355300 Eps(inf)=   1.777849
 ------------------------------------------------------------------------------
 Spheres list:
 ISph  on   Nord     Re0    Alpha      Xe            Ye            Ze
    1   O      1    1.7500  1.100     -1.818918      1.473184     -0.201797
    2   P      2    2.0735  1.100     -1.501891     -0.082487     -0.032091
    3   O      3    1.7500  1.100     -2.815072     -0.824057     -0.567629
    4   O      4    1.7500  1.100     -1.479327     -0.322081      1.479099
    5   O      5    1.7500  1.100     -0.317499     -0.403151     -0.662153
    6  Sr      6    1.8205  1.100      2.019269      0.007024     -0.001878
    7   H      7    1.4430  1.100     -2.757314      1.579225      0.172580
 ------------------------------------------------------------------------------
 One-electron integrals computed using PRISM.
 PrsmSu:  requested number of processors reduced to:  30 ShMem   1 Linda.
   1 Symmetry operations used in ECPInt.
 ECPInt:  NShTT=     990 NPrTT=    4009 LenC2=     985 LenP2D=    3284.
 LDataN:  DoStor=T MaxTD1= 6 Len=  172
 Number of processors reduced to  26 by ecpmxn.
 NBasis=   102 RedAO= T EigKep=  9.43D-03  NBF=   102
 NBsUse=   102 1.00D-06 EigRej= -1.00D+00 NBFU=   102
 Defaulting to unpruned grid for atomic number  38.
 Initial guess from the checkpoint file:  "/home/zz1/proj/gauss/new/chk/Sr-WUDCAB-4/77.chk"
 B after Tr=     0.000000    0.000000   -0.000000
         Rot=    0.999776    0.020994   -0.001883   -0.002049 Ang=   2.43 deg.
 ExpMin= 2.58D-02 ExpMax= 8.00D+03 ExpMxC= 1.20D+03 IAcc=3 IRadAn=         5 AccDes= 0.00D+00
 Harris functional with IExCor= 1009 and IRadAn=       5 diagonalized for initial guess.
 HarFok:  IExCor= 1009 AccDes= 0.00D+00 IRadAn=         5 IDoV= 1 UseB2=F ITyADJ=14
 ICtDFT=  3500011 ScaDFX=  1.000000  1.000000  1.000000  1.000000
 Defaulting to unpruned grid for atomic number  38.
 FoFCou: FMM=F IPFlag=           0 FMFlag=      100000 FMFlg1=           0
         NFxFlg=           0 DoJE=T BraDBF=F KetDBF=T FulRan=T
         wScrn=  0.000000 ICntrl=       500 IOpCl=  0 I1Cent=   200000004 NGrid=           0
         NMat0=    1 NMatS0=      1 NMatT0=    0 NMatD0=    1 NMtDS0=    0 NMtDT0=    0
 Petite list used in FoFCou.
 Keep R1 ints in memory in canonical form, NReq=59585671.
 Requested convergence on RMS density matrix=1.00D-08 within 128 cycles.
 Requested convergence on MAX density matrix=1.00D-06.
 Requested convergence on             energy=1.00D-06.
 No special actions if energy rises.
 Defaulting to unpruned grid for atomic number  38.
 Defaulting to unpruned grid for atomic number  38.
 Defaulting to unpruned grid for atomic number  38.
 Defaulting to unpruned grid for atomic number  38.
 Defaulting to unpruned grid for atomic number  38.
 Defaulting to unpruned grid for atomic number  38.
 Defaulting to unpruned grid for atomic number  38.
 Defaulting to unpruned grid for atomic number  38.
 Defaulting to unpruned grid for atomic number  38.
 Defaulting to unpruned grid for atomic number  38.
 Defaulting to unpruned grid for atomic number  38.
 Defaulting to unpruned grid for atomic number  38.
 Defaulting to unpruned grid for atomic number  38.
 Defaulting to unpruned grid for atomic number  38.
 Defaulting to unpruned grid for atomic number  38.
 Defaulting to unpruned grid for atomic number  38.
 Defaulting to unpruned grid for atomic number  38.
 Defaulting to unpruned grid for atomic number  38.
 Defaulting to unpruned grid for atomic number  38.
 Defaulting to unpruned grid for atomic number  38.
 Defaulting to unpruned grid for atomic number  38.
 Defaulting to unpruned grid for atomic number  38.
 Defaulting to unpruned grid for atomic number  38.
 Defaulting to unpruned grid for atomic number  38.
 Defaulting to unpruned grid for atomic number  38.
 Defaulting to unpruned grid for atomic number  38.
 Defaulting to unpruned grid for atomic number  38.
 Defaulting to unpruned grid for atomic number  38.
 Defaulting to unpruned grid for atomic number  38.
 Defaulting to unpruned grid for atomic number  38.
 Defaulting to unpruned grid for atomic number  38.
 Defaulting to unpruned grid for atomic number  38.
 Defaulting to unpruned grid for atomic number  38.
 Defaulting to unpruned grid for atomic number  38.
 Defaulting to unpruned grid for atomic number  38.
 Defaulting to unpruned grid for atomic number  38.
 Defaulting to unpruned grid for atomic number  38.
 Defaulting to unpruned grid for atomic number  38.
 Defaulting to unpruned grid for atomic number  38.
 Defaulting to unpruned grid for atomic number  38.
 Defaulting to unpruned grid for atomic number  38.
 Defaulting to unpruned grid for atomic number  38.
 Defaulting to unpruned grid for atomic number  38.
 Defaulting to unpruned grid for atomic number  38.
 Defaulting to unpruned grid for atomic number  38.
 Defaulting to unpruned grid for atomic number  38.
 Defaulting to unpruned grid for atomic number  38.
 Defaulting to unpruned grid for atomic number  38.
 Defaulting to unpruned grid for atomic number  38.
 CoulSu:  requested number of processors reduced to:  42 ShMem   1 Linda.
 Inv3:  Mode=1 IEnd=     3383532.
 Iteration    1 A*A^-1 deviation from unit magnitude is 3.11D-15 for    193.
 Iteration    1 A*A^-1 deviation from orthogonality  is 2.28D-15 for    668      2.
 Iteration    1 A^-1*A deviation from unit magnitude is 2.66D-15 for    541.
 Iteration    1 A^-1*A deviation from orthogonality  is 1.42D-15 for   1056    217.
 CoulSu:  requested number of processors reduced to:  42 ShMem   1 Linda.
 CoulSu:  requested number of processors reduced to:  42 ShMem   1 Linda.
 CoulSu:  requested number of processors reduced to:  43 ShMem   1 Linda.
 CoulSu:  requested number of processors reduced to:  40 ShMem   1 Linda.
 Error on total polarization charges =  0.01083
 SCF Done:  E(RM062X) =  -673.246539160     A.U. after   12 cycles
            NFock= 12  Conv=0.56D-08     -V/T= 2.0366

 **********************************************************************

            Population analysis using the SCF density.

 **********************************************************************

 Orbital symmetries:
       Occupied  (A) (A) (A) (A) (A) (A) (A) (A) (A) (A) (A) (A)
                 (A) (A) (A) (A) (A) (A) (A) (A) (A) (A) (A) (A)
                 (A) (A) (A) (A) (A)
       Virtual   (A) (A) (A) (A) (A) (A) (A) (A) (A) (A) (A) (A)
                 (A) (A) (A) (A) (A) (A) (A) (A) (A) (A) (A) (A)
                 (A) (A) (A) (A) (A) (A) (A) (A) (A) (A) (A) (A)
                 (A) (A) (A) (A) (A) (A) (A) (A) (A) (A) (A) (A)
                 (A) (A) (A) (A) (A) (A) (A) (A) (A) (A) (A) (A)
                 (A) (A) (A) (A) (A) (A) (A) (A) (A) (A) (A) (A)
                 (A)
 The electronic state is 1-A.
 Alpha  occ. eigenvalues --  -78.05716 -19.59450 -19.54546 -19.47620 -19.46647
 Alpha  occ. eigenvalues --   -6.85864  -4.98079  -4.97870  -4.97663  -1.67110
 Alpha  occ. eigenvalues --   -1.12569  -1.05877  -0.94928  -0.93162  -0.93147
 Alpha  occ. eigenvalues --   -0.92561  -0.89656  -0.59068  -0.49758  -0.46887
 Alpha  occ. eigenvalues --   -0.44715  -0.40679  -0.38515  -0.35856  -0.30800
 Alpha  occ. eigenvalues --   -0.29072  -0.27238  -0.23802  -0.21997
 Alpha virt. eigenvalues --   -0.00798   0.03619   0.03780   0.04861   0.06599
 Alpha virt. eigenvalues --    0.06643   0.08029   0.08632   0.09608   0.13150
 Alpha virt. eigenvalues --    0.13827   0.14892   0.15028   0.15215   0.16516
 Alpha virt. eigenvalues --    0.17910   0.29463   0.29811   0.32280   0.33801
 Alpha virt. eigenvalues --    0.34989   0.38163   0.40261   0.49197   0.63178
 Alpha virt. eigenvalues --    0.68355   0.71231   0.76684   0.79514   0.81329
 Alpha virt. eigenvalues --    0.98440   1.00535   1.02882   1.07909   1.08941
 Alpha virt. eigenvalues --    1.11983   1.17295   1.18968   1.22171   1.24547
 Alpha virt. eigenvalues --    1.26155   1.33541   1.39511   1.42323   1.43895
 Alpha virt. eigenvalues --    1.45443   1.48409   1.54055   1.57691   1.70673
 Alpha virt. eigenvalues --    1.84972   2.20679   2.73129   2.74706   2.74871
 Alpha virt. eigenvalues --    2.76939   2.81998   2.83883   2.85304   2.85721
 Alpha virt. eigenvalues --    2.88478   2.97026   3.01402   3.04694   3.08806
 Alpha virt. eigenvalues --    3.16534   3.20510   3.25326   3.39959   3.51448
 Alpha virt. eigenvalues --    3.60333   3.72330  30.14108
          Condensed to atoms (all electrons):
               1          2          3          4          5          6
     1  O    8.030620   0.257684  -0.046459  -0.049211  -0.030543   0.032902
     2  P    0.257684  12.308483   0.531746   0.517886   0.439409  -0.016454
     3  O   -0.046459   0.531746   8.474253  -0.060334  -0.038170   0.010669
     4  O   -0.049211   0.517886  -0.060334   8.387073  -0.057441   0.063285
     5  O   -0.030543   0.439409  -0.038170  -0.057441   8.167994   0.140094
     6  Sr   0.032902  -0.016454   0.010669   0.063285   0.140094   8.144166
     7  H    0.300992   0.000121   0.009617   0.003055   0.003061  -0.005895
               7
     1  O    0.300992
     2  P    0.000121
     3  O    0.009617
     4  O    0.003055
     5  O    0.003061
     6  Sr  -0.005895
     7  H    0.475383
 Mulliken charges:
               1
     1  O   -0.495985
     2  P    0.961125
     3  O   -0.881322
     4  O   -0.804312
     5  O   -0.624404
     6  Sr   1.631232
     7  H    0.213667
 Sum of Mulliken charges =   0.00000
 Mulliken charges with hydrogens summed into heavy atoms:
               1
     1  O   -0.282318
     2  P    0.961125
     3  O   -0.881322
     4  O   -0.804312
     5  O   -0.624404
     6  Sr   1.631232
 Electronic spatial extent (au):  <R**2>=            976.6850
 Charge=              0.0000 electrons
 Dipole moment (field-independent basis, Debye):
    X=             31.4535    Y=              4.6131    Z=             -0.8376  Tot=             31.8011
 Quadrupole moment (field-independent basis, Debye-Ang):
   XX=            -38.6895   YY=            -53.1150   ZZ=            -60.1176
   XY=            -11.8727   XZ=             -0.4371   YZ=              0.4803
 Traceless Quadrupole moment (field-independent basis, Debye-Ang):
   XX=             11.9512   YY=             -2.4743   ZZ=             -9.4769
   XY=            -11.8727   XZ=             -0.4371   YZ=              0.4803
 Octapole moment (field-independent basis, Debye-Ang**2):
  XXX=            262.3361  YYY=              2.5013  ZZZ=            -15.2567  XYY=             46.7621
  XXY=             41.1495  XXZ=             11.1894  XZZ=             56.1445  YZZ=              6.5014
  YYZ=              3.3942  XYZ=             -0.2777
 Hexadecapole moment (field-independent basis, Debye-Ang**3):
 XXXX=          -1008.6530 YYYY=           -175.9334 ZZZZ=           -189.8567 XXXY=           -131.9278
 XXXZ=            -51.4383 YYYX=            -14.5915 YYYZ=              2.5740 ZZZX=             18.5911
 ZZZY=              3.4027 XXYY=           -198.8774 XXZZ=           -219.8450 YYZZ=            -58.6213
 XXYZ=             -4.2647 YYXZ=             -9.7164 ZZXY=            -10.5477
 N-N= 3.319752217954D+02 E-N=-2.255534665889D+03  KE= 6.494837100408D+02
 PrsmSu:  requested number of processors reduced to:  22 ShMem   1 Linda.
   1 Symmetry operations used in ECPInt.
 ECPInt:  NShTT=     990 NPrTT=    4009 LenC2=     985 LenP2D=    3284.
 LDataN:  DoStor=T MaxTD1= 7 Len=  274
 Number of processors reduced to  24 by ecpmxn.
 D1PCM: PCM CHGder 1st derivatives, ID1Alg=3 FixD1E=F DoIter=F DoCFld=F I1PDM=0.
 CoulSu:  requested number of processors reduced to:  48 ShMem   1 Linda.
 CoulSu:  requested number of processors reduced to:  48 ShMem   1 Linda.
 CoulSu:  requested number of processors reduced to:  29 ShMem   1 Linda.
 CoulSu:  requested number of processors reduced to:  30 ShMem   1 Linda.
 Calling FoFJK, ICntrl=      2127 FMM=F ISym2X=0 I1Cent= 0 IOpClX= 0 NMat=1 NMatS=1 NMatT=0.
 Defaulting to unpruned grid for atomic number  38.
 Defaulting to unpruned grid for atomic number  38.
 Defaulting to unpruned grid for atomic number  38.
 Defaulting to unpruned grid for atomic number  38.
 Defaulting to unpruned grid for atomic number  38.
 Defaulting to unpruned grid for atomic number  38.
 Defaulting to unpruned grid for atomic number  38.
 Defaulting to unpruned grid for atomic number  38.
 Defaulting to unpruned grid for atomic number  38.
 Defaulting to unpruned grid for atomic number  38.
 Defaulting to unpruned grid for atomic number  38.
 Defaulting to unpruned grid for atomic number  38.
 Defaulting to unpruned grid for atomic number  38.
 Defaulting to unpruned grid for atomic number  38.
 Defaulting to unpruned grid for atomic number  38.
 Defaulting to unpruned grid for atomic number  38.
 Defaulting to unpruned grid for atomic number  38.
 Defaulting to unpruned grid for atomic number  38.
 Defaulting to unpruned grid for atomic number  38.
 Defaulting to unpruned grid for atomic number  38.
 Defaulting to unpruned grid for atomic number  38.
 Defaulting to unpruned grid for atomic number  38.
 Defaulting to unpruned grid for atomic number  38.
 Defaulting to unpruned grid for atomic number  38.
 Defaulting to unpruned grid for atomic number  38.
 Defaulting to unpruned grid for atomic number  38.
 Defaulting to unpruned grid for atomic number  38.
 Defaulting to unpruned grid for atomic number  38.
 Defaulting to unpruned grid for atomic number  38.
 Defaulting to unpruned grid for atomic number  38.
 Defaulting to unpruned grid for atomic number  38.
 Defaulting to unpruned grid for atomic number  38.
 Defaulting to unpruned grid for atomic number  38.
 Defaulting to unpruned grid for atomic number  38.
 Defaulting to unpruned grid for atomic number  38.
 Defaulting to unpruned grid for atomic number  38.
 Defaulting to unpruned grid for atomic number  38.
 Defaulting to unpruned grid for atomic number  38.
 Defaulting to unpruned grid for atomic number  38.
 Defaulting to unpruned grid for atomic number  38.
 Defaulting to unpruned grid for atomic number  38.
 Defaulting to unpruned grid for atomic number  38.
 Defaulting to unpruned grid for atomic number  38.
 Defaulting to unpruned grid for atomic number  38.
 Defaulting to unpruned grid for atomic number  38.
 Defaulting to unpruned grid for atomic number  38.
 Defaulting to unpruned grid for atomic number  38.
 Defaulting to unpruned grid for atomic number  38.
 Defaulting to unpruned grid for atomic number  38.
 ***** Axes restored to original set *****
 -------------------------------------------------------------------
 Center     Atomic                   Forces (Hartrees/Bohr)
 Number     Number              X              Y              Z
 -------------------------------------------------------------------
      1        8           0.030765545   -0.002065200   -0.062764157
      2       15           0.088807849   -0.277262881   -0.088299357
      3        8          -0.023645589    0.043663872   -0.009039834
      4        8          -0.026072831    0.004627575   -0.007151774
      5        8          -0.064438637    0.203723391    0.147362954
      6       38           0.009611502   -0.009958610   -0.001518768
      7        1          -0.015027839    0.037271853    0.021410937
 -------------------------------------------------------------------
 Cartesian Forces:  Max     0.277262881 RMS     0.090075861

 GradGradGradGradGradGradGradGradGradGradGradGradGradGradGradGradGradGrad
 Berny optimization.
 Using GEDIIS/GDIIS optimizer.
 FormGI is forming the generalized inverse of G from B-inverse, IUseBI=4.
 Internal  Forces:  Max     0.231941820 RMS     0.058065357
 Search for a local minimum.
 Step number   2 out of a maximum of   10
 All quantities printed in internal units (Hartrees-Bohrs-Radians)
 Mixed Optimization -- RFO/linear search
 Update second derivatives using D2CorX and points    1    2
 DE= -8.90D-02 DEPred=-8.89D-02 R= 1.00D+00
 TightC=F SS=  1.41D+00  RLast= 3.30D-01 DXNew= 5.0454D-01 9.9131D-01
 Trust test= 1.00D+00 RLast= 3.30D-01 DXMaxT set to 5.05D-01
 ITU=  1  0
 Use linear search instead of GDIIS.
     Eigenvalues ---    0.03375   0.03884   0.09297   0.15976   0.18237
     Eigenvalues ---    0.20301   0.22465   0.24804   0.25000   0.31456
     Eigenvalues ---    0.37847   0.46076   0.56802   0.79681   1.36637
 RFO step:  Lambda=-3.04822326D-02 EMin= 3.37485890D-02
 Quartic linear search produced a step of  1.31058.
 Iteration  1 RMS(Cart)=  0.16170413 RMS(Int)=  0.02956935
 Iteration  2 RMS(Cart)=  0.03332571 RMS(Int)=  0.02051976
 Iteration  3 RMS(Cart)=  0.00536868 RMS(Int)=  0.02045836
 Iteration  4 RMS(Cart)=  0.00098885 RMS(Int)=  0.02045655
 Iteration  5 RMS(Cart)=  0.00018543 RMS(Int)=  0.02045649
 Iteration  6 RMS(Cart)=  0.00003454 RMS(Int)=  0.02045649
 Iteration  7 RMS(Cart)=  0.00000644 RMS(Int)=  0.02045649
 Iteration  8 RMS(Cart)=  0.00000120 RMS(Int)=  0.02045649
 Iteration  9 RMS(Cart)=  0.00000022 RMS(Int)=  0.02045649
 Variable       Old X    -DE/DX   Delta X   Delta X   Delta X     New X
                                 (Linear)    (Quad)   (Total)
    R1        3.01731   0.05431   0.08001   0.07419   0.15419   3.17150
    R2        1.91971  -0.04544  -0.10539  -0.06771  -0.17310   1.74661
    R3        3.02425  -0.04597  -0.04977  -0.12729  -0.17705   2.84720
    R4        2.89172   0.01823   0.06740  -0.05131   0.01609   2.90781
    R5        2.60658   0.23194   0.17194   0.04626   0.23529   2.84187
    R6        6.65642   0.02520   0.01733  -0.12623  -0.13731   6.51911
    R7        4.65375  -0.04074  -0.06444  -0.13406  -0.16804   4.48571
    A1        1.81929   0.00487   0.00484   0.04840   0.05325   1.87254
    A2        1.82656  -0.00670  -0.08543   0.09519  -0.00668   1.81987
    A3        1.83428   0.00319  -0.01726   0.07986   0.05274   1.88702
    A4        1.92671  -0.03580  -0.17174  -0.08443  -0.26242   1.66429
    A5        1.74633  -0.01364  -0.01356   0.03369   0.01244   1.75877
    A6        1.84421   0.03398   0.21391  -0.04193   0.16310   2.00731
    A7        2.03085  -0.02023  -0.01363   0.01694  -0.01001   2.02085
    A8        2.55875   0.01622  -0.00170  -0.04133  -0.05684   2.50191
    A9        1.98454   0.02675   0.11467  -0.04619   0.02767   2.01221
   A10        1.55156  -0.03326  -0.04874  -0.11798  -0.13452   1.41705
    D1        0.80717   0.02070   0.13952  -0.03139   0.09316   0.90033
    D2       -1.13148  -0.01546  -0.05878  -0.05286  -0.11207  -1.24355
    D3        3.00509  -0.02955  -0.08550   0.00101  -0.03936   2.96573
    D4       -2.72989   0.02269  -0.00002   0.04725   0.01750  -2.71239
         Item               Value     Threshold  Converged?
 Maximum Force            0.231942     0.000450     NO 
 RMS     Force            0.058065     0.000300     NO 
 Maximum Displacement     0.358721     0.001800     NO 
 RMS     Displacement     0.167864     0.001200     NO 
 Predicted change in Energy=-5.092025D-02
 GradGradGradGradGradGradGradGradGradGradGradGradGradGradGradGradGradGrad

                          Input orientation:                          
 ---------------------------------------------------------------------
 Center     Atomic      Atomic             Coordinates (Angstroms)
 Number     Number       Type             X           Y           Z
 ---------------------------------------------------------------------
      1          8           0        7.481395    8.503115    3.853213
      2         15           0        6.939628    7.807829    5.281396
      3          8           0        8.109470    6.989748    5.763344
      4          8           0        5.666910    7.001618    4.968426
      5          8           0        6.714649    9.111855    5.995869
      6         38           0        4.587269   10.127035    6.275669
      7          1           0        7.819279    7.822369    3.327201
 ---------------------------------------------------------------------
                    Distance matrix (angstroms):
                    1          2          3          4          5
     1  O    0.000000
     2  P    1.678285   0.000000
     3  O    2.516617   1.506672   0.000000
     4  O    2.605868   1.538746   2.568684   0.000000
     5  O    2.355724   1.503852   2.550085   2.570311   0.000000
     6  Sr   4.108695   3.449767   4.744571   3.555664   2.373737
     7  H    0.924267   2.143099   2.590803   2.828417   3.163032
                    6          7
     6  Sr   0.000000
     7  H    4.944779   0.000000
 Stoichiometry    HO4PSr
 Framework group  C1[X(HO4PSr)]
 Deg. of freedom    15
 Full point group                 C1      NOp   1
 Largest Abelian subgroup         C1      NOp   1
 Largest concise Abelian subgroup C1      NOp   1
                         Standard orientation:                         
 ---------------------------------------------------------------------
 Center     Atomic      Atomic             Coordinates (Angstroms)
 Number     Number       Type             X           Y           Z
 ---------------------------------------------------------------------
      1          8           0       -1.886656    1.266554    0.770637
      2         15           0       -1.501008   -0.131439   -0.074072
      3          8           0       -2.683371   -0.355735   -0.980587
      4          8           0       -1.243053   -1.252343    0.948070
      5          8           0       -0.272075    0.435302   -0.729893
      6         38           0        1.945430    0.001961   -0.002216
      7          1           0       -2.729970    1.146847    1.129469
 ---------------------------------------------------------------------
 Rotational constants (GHZ):           4.7304640           0.7729908           0.7627038
 Standard basis: def2SVP (5D, 7F)
 There are   109 symmetry adapted cartesian basis functions of A   symmetry.
 There are   102 symmetry adapted basis functions of A   symmetry.
   102 basis functions,   198 primitive gaussians,   109 cartesian basis functions
    29 alpha electrons       29 beta electrons
       nuclear repulsion energy       329.7496959499 Hartrees.
 NAtoms=    7 NActive=    7 NUniq=    7 SFac= 1.00D+00 NAtFMM=   60 NAOKFM=F Big=F
 Integral buffers will be    131072 words long.
 Raffenetti 2 integral format.
 Two-electron integral symmetry is turned on.
 ------------------------------------------------------------------------------
 Polarizable Continuum Model (PCM)
 =================================
 Model                : PCM.
 Atomic radii         : UFF (Universal Force Field).
 Polarization charges : Total charges.
 Charge compensation  : None.
 Solution method      : On-the-fly selection.
 Cavity type          : Scaled VdW (van der Waals Surface) (Alpha=1.100).
 Cavity algorithm     : GePol (No added spheres)
                        Default sphere list used, NSphG=    7.
                        Lebedev-Laikov grids with approx.  5.0 points / Ang**2.
                        Smoothing algorithm: York/Karplus (Gamma=1.0000).
                        Polarization charges: spherical gaussians, with
                                              point-specific exponents (IZeta= 3).
                        Self-potential: point-specific (ISelfS= 7).
                        Self-field    : sphere-specific E.n sum rule (ISelfD= 2).
 1st derivatives      : Analytical E(r).r(x)/FMM algorithm (CHGder, D1EAlg=3).
                        Cavity 1st derivative terms included.
 Solvent              : Water, Eps=  78.355300 Eps(inf)=   1.777849
 ------------------------------------------------------------------------------
 Spheres list:
 ISph  on   Nord     Re0    Alpha      Xe            Ye            Ze
    1   O      1    1.7500  1.100     -1.886656      1.266554      0.770637
    2   P      2    2.0735  1.100     -1.501008     -0.131439     -0.074072
    3   O      3    1.7500  1.100     -2.683371     -0.355735     -0.980587
    4   O      4    1.7500  1.100     -1.243053     -1.252343      0.948070
    5   O      5    1.7500  1.100     -0.272075      0.435302     -0.729893
    6  Sr      6    1.8205  1.100      1.945430      0.001961     -0.002216
    7   H      7    1.4430  1.100     -2.729970      1.146847      1.129469
 ------------------------------------------------------------------------------
 One-electron integrals computed using PRISM.
 PrsmSu:  requested number of processors reduced to:  30 ShMem   1 Linda.
   1 Symmetry operations used in ECPInt.
 ECPInt:  NShTT=     990 NPrTT=    4009 LenC2=     985 LenP2D=    3289.
 LDataN:  DoStor=T MaxTD1= 6 Len=  172
 Number of processors reduced to  26 by ecpmxn.
 NBasis=   102 RedAO= T EigKep=  9.75D-03  NBF=   102
 NBsUse=   102 1.00D-06 EigRej= -1.00D+00 NBFU=   102
 Defaulting to unpruned grid for atomic number  38.
 Initial guess from the checkpoint file:  "/home/zz1/proj/gauss/new/chk/Sr-WUDCAB-4/77.chk"
 B after Tr=    -0.000000   -0.000000    0.000000
         Rot=    0.936107   -0.351572   -0.003678   -0.009293 Ang= -41.18 deg.
 ExpMin= 2.58D-02 ExpMax= 8.00D+03 ExpMxC= 1.20D+03 IAcc=3 IRadAn=         5 AccDes= 0.00D+00
 Harris functional with IExCor= 1009 and IRadAn=       5 diagonalized for initial guess.
 HarFok:  IExCor= 1009 AccDes= 0.00D+00 IRadAn=         5 IDoV= 1 UseB2=F ITyADJ=14
 ICtDFT=  3500011 ScaDFX=  1.000000  1.000000  1.000000  1.000000
 Defaulting to unpruned grid for atomic number  38.
 FoFCou: FMM=F IPFlag=           0 FMFlag=      100000 FMFlg1=           0
         NFxFlg=           0 DoJE=T BraDBF=F KetDBF=T FulRan=T
         wScrn=  0.000000 ICntrl=       500 IOpCl=  0 I1Cent=   200000004 NGrid=           0
         NMat0=    1 NMatS0=      1 NMatT0=    0 NMatD0=    1 NMtDS0=    0 NMtDT0=    0
 Petite list used in FoFCou.
 Keep R1 ints in memory in canonical form, NReq=59585671.
 Requested convergence on RMS density matrix=1.00D-08 within 128 cycles.
 Requested convergence on MAX density matrix=1.00D-06.
 Requested convergence on             energy=1.00D-06.
 No special actions if energy rises.
 Defaulting to unpruned grid for atomic number  38.
 Defaulting to unpruned grid for atomic number  38.
 Defaulting to unpruned grid for atomic number  38.
 Defaulting to unpruned grid for atomic number  38.
 Defaulting to unpruned grid for atomic number  38.
 Defaulting to unpruned grid for atomic number  38.
 Defaulting to unpruned grid for atomic number  38.
 Defaulting to unpruned grid for atomic number  38.
 Defaulting to unpruned grid for atomic number  38.
 Defaulting to unpruned grid for atomic number  38.
 Defaulting to unpruned grid for atomic number  38.
 Defaulting to unpruned grid for atomic number  38.
 Defaulting to unpruned grid for atomic number  38.
 Defaulting to unpruned grid for atomic number  38.
 Defaulting to unpruned grid for atomic number  38.
 Defaulting to unpruned grid for atomic number  38.
 Defaulting to unpruned grid for atomic number  38.
 Defaulting to unpruned grid for atomic number  38.
 Defaulting to unpruned grid for atomic number  38.
 Defaulting to unpruned grid for atomic number  38.
 Defaulting to unpruned grid for atomic number  38.
 Defaulting to unpruned grid for atomic number  38.
 Defaulting to unpruned grid for atomic number  38.
 Defaulting to unpruned grid for atomic number  38.
 Defaulting to unpruned grid for atomic number  38.
 Defaulting to unpruned grid for atomic number  38.
 Defaulting to unpruned grid for atomic number  38.
 Defaulting to unpruned grid for atomic number  38.
 Defaulting to unpruned grid for atomic number  38.
 Defaulting to unpruned grid for atomic number  38.
 Defaulting to unpruned grid for atomic number  38.
 Defaulting to unpruned grid for atomic number  38.
 Defaulting to unpruned grid for atomic number  38.
 Defaulting to unpruned grid for atomic number  38.
 Defaulting to unpruned grid for atomic number  38.
 Defaulting to unpruned grid for atomic number  38.
 Defaulting to unpruned grid for atomic number  38.
 Defaulting to unpruned grid for atomic number  38.
 Defaulting to unpruned grid for atomic number  38.
 Defaulting to unpruned grid for atomic number  38.
 Defaulting to unpruned grid for atomic number  38.
 Defaulting to unpruned grid for atomic number  38.
 Defaulting to unpruned grid for atomic number  38.
 Defaulting to unpruned grid for atomic number  38.
 Defaulting to unpruned grid for atomic number  38.
 Defaulting to unpruned grid for atomic number  38.
 Defaulting to unpruned grid for atomic number  38.
 Defaulting to unpruned grid for atomic number  38.
 Defaulting to unpruned grid for atomic number  38.
 CoulSu:  requested number of processors reduced to:  42 ShMem   1 Linda.
 Inv3:  Mode=1 IEnd=     3358092.
 Iteration    1 A*A^-1 deviation from unit magnitude is 3.33D-15 for    384.
 Iteration    1 A*A^-1 deviation from orthogonality  is 1.72D-15 for    584     73.
 Iteration    1 A^-1*A deviation from unit magnitude is 3.33D-15 for    384.
 Iteration    1 A^-1*A deviation from orthogonality  is 1.39D-15 for    903    452.
 CoulSu:  requested number of processors reduced to:  42 ShMem   1 Linda.
 CoulSu:  requested number of processors reduced to:  42 ShMem   1 Linda.
 CoulSu:  requested number of processors reduced to:  43 ShMem   1 Linda.
 CoulSu:  requested number of processors reduced to:  40 ShMem   1 Linda.
 Error on total polarization charges =  0.01096
 SCF Done:  E(RM062X) =  -673.300420033     A.U. after   13 cycles
            NFock= 13  Conv=0.39D-08     -V/T= 2.0371

 **********************************************************************

            Population analysis using the SCF density.

 **********************************************************************

 Orbital symmetries:
       Occupied  (A) (A) (A) (A) (A) (A) (A) (A) (A) (A) (A) (A)
                 (A) (A) (A) (A) (A) (A) (A) (A) (A) (A) (A) (A)
                 (A) (A) (A) (A) (A)
       Virtual   (A) (A) (A) (A) (A) (A) (A) (A) (A) (A) (A) (A)
                 (A) (A) (A) (A) (A) (A) (A) (A) (A) (A) (A) (A)
                 (A) (A) (A) (A) (A) (A) (A) (A) (A) (A) (A) (A)
                 (A) (A) (A) (A) (A) (A) (A) (A) (A) (A) (A) (A)
                 (A) (A) (A) (A) (A) (A) (A) (A) (A) (A) (A) (A)
                 (A) (A) (A) (A) (A) (A) (A) (A) (A) (A) (A) (A)
                 (A)
 The electronic state is 1-A.
 Alpha  occ. eigenvalues --  -78.07946 -19.57645 -19.54053 -19.51328 -19.50036
 Alpha  occ. eigenvalues --   -6.87523  -4.99702  -4.99539  -4.99435  -1.66091
 Alpha  occ. eigenvalues --   -1.10351  -1.02888  -0.97901  -0.94979  -0.92247
 Alpha  occ. eigenvalues --   -0.92234  -0.91125  -0.58826  -0.49226  -0.45511
 Alpha  occ. eigenvalues --   -0.43689  -0.40890  -0.36504  -0.34493  -0.33578
 Alpha  occ. eigenvalues --   -0.31935  -0.29751  -0.27321  -0.25861
 Alpha virt. eigenvalues --   -0.00648   0.03729   0.03875   0.04937   0.06845
 Alpha virt. eigenvalues --    0.06861   0.08629   0.09214   0.09802   0.13361
 Alpha virt. eigenvalues --    0.14773   0.15333   0.15380   0.15461   0.17938
 Alpha virt. eigenvalues --    0.19213   0.27241   0.30081   0.30536   0.31499
 Alpha virt. eigenvalues --    0.34033   0.36710   0.41254   0.47995   0.67163
 Alpha virt. eigenvalues --    0.68515   0.69874   0.75910   0.76720   0.81264
 Alpha virt. eigenvalues --    0.97153   1.00036   1.02966   1.05831   1.08772
 Alpha virt. eigenvalues --    1.13056   1.16851   1.18458   1.20235   1.21185
 Alpha virt. eigenvalues --    1.26202   1.32063   1.37292   1.37760   1.40490
 Alpha virt. eigenvalues --    1.47290   1.49699   1.54386   1.60183   1.71626
 Alpha virt. eigenvalues --    1.79721   2.41720   2.73056   2.74002   2.76645
 Alpha virt. eigenvalues --    2.77871   2.79526   2.80716   2.81058   2.81709
 Alpha virt. eigenvalues --    2.88264   2.95588   3.02400   3.05594   3.11048
 Alpha virt. eigenvalues --    3.12529   3.14598   3.23617   3.39048   3.49502
 Alpha virt. eigenvalues --    3.53048   3.84648  30.15953
          Condensed to atoms (all electrons):
               1          2          3          4          5          6
     1  O    8.026374   0.252921  -0.046582  -0.036034  -0.050674   0.036344
     2  P    0.252921  12.310622   0.565712   0.487574   0.386310  -0.024486
     3  O   -0.046582   0.565712   8.301538  -0.043157  -0.036126   0.010653
     4  O   -0.036034   0.487574  -0.043157   8.318946  -0.043112   0.072182
     5  O   -0.050674   0.386310  -0.036126  -0.043112   8.299637   0.169725
     6  Sr   0.036344  -0.024486   0.010653   0.072182   0.169725   8.177770
     7  H    0.312424  -0.002466   0.007866   0.001564   0.003835  -0.007063
               7
     1  O    0.312424
     2  P   -0.002466
     3  O    0.007866
     4  O    0.001564
     5  O    0.003835
     6  Sr  -0.007063
     7  H    0.530295
 Mulliken charges:
               1
     1  O   -0.494774
     2  P    1.023813
     3  O   -0.759903
     4  O   -0.757962
     5  O   -0.729594
     6  Sr   1.564875
     7  H    0.153546
 Sum of Mulliken charges =  -0.00000
 Mulliken charges with hydrogens summed into heavy atoms:
               1
     1  O   -0.341228
     2  P    1.023813
     3  O   -0.759903
     4  O   -0.757962
     5  O   -0.729594
     6  Sr   1.564875
 Electronic spatial extent (au):  <R**2>=            941.9575
 Charge=             -0.0000 electrons
 Dipole moment (field-independent basis, Debye):
    X=             27.7746    Y=              1.9830    Z=              2.0812  Tot=             27.9230
 Quadrupole moment (field-independent basis, Debye-Ang):
   XX=            -34.1553   YY=            -57.8461   ZZ=            -56.4639
   XY=             -6.2736   XZ=             -6.9241   YZ=              3.9249
 Traceless Quadrupole moment (field-independent basis, Debye-Ang):
   XX=             15.3332   YY=             -8.3577   ZZ=             -6.9755
   XY=             -6.2736   XZ=             -6.9241   YZ=              3.9249
 Octapole moment (field-independent basis, Debye-Ang**2):
  XXX=            221.4859  YYY=              5.2175  ZZZ=              4.2759  XYY=             48.4250
  XXY=             18.3834  XXZ=             29.2854  XZZ=             47.4295  YZZ=              5.6422
  YYZ=             -6.9500  XYZ=             -2.2573
 Hexadecapole moment (field-independent basis, Debye-Ang**3):
 XXXX=           -891.0392 YYYY=           -201.2533 ZZZZ=           -172.8373 XXXY=            -54.7641
 XXXZ=           -102.6510 YYYX=             -7.8735 YYYZ=              8.2563 ZZZX=            -14.3570
 ZZZY=              7.8635 XXYY=           -193.3854 XXZZ=           -196.9596 YYZZ=            -65.2406
 XXYZ=              3.9759 YYXZ=              5.9675 ZZXY=            -12.8856
 N-N= 3.297496959499D+02 E-N=-2.250316679823D+03  KE= 6.492346412611D+02
 PrsmSu:  requested number of processors reduced to:  22 ShMem   1 Linda.
   1 Symmetry operations used in ECPInt.
 ECPInt:  NShTT=     990 NPrTT=    4009 LenC2=     985 LenP2D=    3289.
 LDataN:  DoStor=T MaxTD1= 7 Len=  274
 Number of processors reduced to  24 by ecpmxn.
 D1PCM: PCM CHGder 1st derivatives, ID1Alg=3 FixD1E=F DoIter=F DoCFld=F I1PDM=0.
 CoulSu:  requested number of processors reduced to:  48 ShMem   1 Linda.
 CoulSu:  requested number of processors reduced to:  48 ShMem   1 Linda.
 CoulSu:  requested number of processors reduced to:  29 ShMem   1 Linda.
 CoulSu:  requested number of processors reduced to:  30 ShMem   1 Linda.
 Calling FoFJK, ICntrl=      2127 FMM=F ISym2X=0 I1Cent= 0 IOpClX= 0 NMat=1 NMatS=1 NMatT=0.
 Defaulting to unpruned grid for atomic number  38.
 Defaulting to unpruned grid for atomic number  38.
 Defaulting to unpruned grid for atomic number  38.
 Defaulting to unpruned grid for atomic number  38.
 Defaulting to unpruned grid for atomic number  38.
 Defaulting to unpruned grid for atomic number  38.
 Defaulting to unpruned grid for atomic number  38.
 Defaulting to unpruned grid for atomic number  38.
 Defaulting to unpruned grid for atomic number  38.
 Defaulting to unpruned grid for atomic number  38.
 Defaulting to unpruned grid for atomic number  38.
 Defaulting to unpruned grid for atomic number  38.
 Defaulting to unpruned grid for atomic number  38.
 Defaulting to unpruned grid for atomic number  38.
 Defaulting to unpruned grid for atomic number  38.
 Defaulting to unpruned grid for atomic number  38.
 Defaulting to unpruned grid for atomic number  38.
 Defaulting to unpruned grid for atomic number  38.
 Defaulting to unpruned grid for atomic number  38.
 Defaulting to unpruned grid for atomic number  38.
 Defaulting to unpruned grid for atomic number  38.
 Defaulting to unpruned grid for atomic number  38.
 Defaulting to unpruned grid for atomic number  38.
 Defaulting to unpruned grid for atomic number  38.
 Defaulting to unpruned grid for atomic number  38.
 Defaulting to unpruned grid for atomic number  38.
 Defaulting to unpruned grid for atomic number  38.
 Defaulting to unpruned grid for atomic number  38.
 Defaulting to unpruned grid for atomic number  38.
 Defaulting to unpruned grid for atomic number  38.
 Defaulting to unpruned grid for atomic number  38.
 Defaulting to unpruned grid for atomic number  38.
 Defaulting to unpruned grid for atomic number  38.
 Defaulting to unpruned grid for atomic number  38.
 Defaulting to unpruned grid for atomic number  38.
 Defaulting to unpruned grid for atomic number  38.
 Defaulting to unpruned grid for atomic number  38.
 Defaulting to unpruned grid for atomic number  38.
 Defaulting to unpruned grid for atomic number  38.
 Defaulting to unpruned grid for atomic number  38.
 Defaulting to unpruned grid for atomic number  38.
 Defaulting to unpruned grid for atomic number  38.
 Defaulting to unpruned grid for atomic number  38.
 Defaulting to unpruned grid for atomic number  38.
 Defaulting to unpruned grid for atomic number  38.
 Defaulting to unpruned grid for atomic number  38.
 Defaulting to unpruned grid for atomic number  38.
 Defaulting to unpruned grid for atomic number  38.
 Defaulting to unpruned grid for atomic number  38.
 ***** Axes restored to original set *****
 -------------------------------------------------------------------
 Center     Atomic                   Forces (Hartrees/Bohr)
 Number     Number              X              Y              Z
 -------------------------------------------------------------------
      1        8          -0.018217010    0.027700339    0.011522037
      2       15           0.007017352   -0.041595858   -0.037273153
      3        8           0.006637646   -0.007909687    0.010180384
      4        8           0.003071017    0.014599576    0.005116586
      5        8          -0.024651772    0.048690045    0.043027984
      6       38           0.007679464   -0.008157938   -0.003201246
      7        1           0.018463303   -0.033326478   -0.029372592
 -------------------------------------------------------------------
 Cartesian Forces:  Max     0.048690045 RMS     0.024043216

 GradGradGradGradGradGradGradGradGradGradGradGradGradGradGradGradGradGrad
 Berny optimization.
 Using GEDIIS/GDIIS optimizer.
 FormGI is forming the generalized inverse of G from B-inverse, IUseBI=4.
 Internal  Forces:  Max     0.059218431 RMS     0.020626251
 Search for a local minimum.
 Step number   3 out of a maximum of   10
 All quantities printed in internal units (Hartrees-Bohrs-Radians)
 Mixed Optimization -- RFO/linear search
 Update second derivatives using D2CorX and points    2    3
 DE= -5.39D-02 DEPred=-5.09D-02 R= 1.06D+00
 TightC=F SS=  1.41D+00  RLast= 5.78D-01 DXNew= 8.4853D-01 1.7347D+00
 Trust test= 1.06D+00 RLast= 5.78D-01 DXMaxT set to 8.49D-01
 ITU=  1  1  0
 Use linear search instead of GDIIS.
     Eigenvalues ---    0.03060   0.03884   0.08378   0.15744   0.17612
     Eigenvalues ---    0.20089   0.23493   0.24995   0.26258   0.31470
     Eigenvalues ---    0.43624   0.47572   0.54401   0.80510   1.11903
 RFO step:  Lambda=-1.82664174D-02 EMin= 3.06006682D-02
 Quartic linear search produced a step of -0.00508.
 Iteration  1 RMS(Cart)=  0.08593705 RMS(Int)=  0.00382536
 Iteration  2 RMS(Cart)=  0.00367811 RMS(Int)=  0.00157396
 Iteration  3 RMS(Cart)=  0.00000784 RMS(Int)=  0.00157395
 Iteration  4 RMS(Cart)=  0.00000006 RMS(Int)=  0.00157395
 Variable       Old X    -DE/DX   Delta X   Delta X   Delta X     New X
                                 (Linear)    (Quad)   (Total)
    R1        3.17150   0.01295  -0.00078   0.04632   0.04554   3.21704
    R2        1.74661   0.04804   0.00088   0.08616   0.08704   1.83365
    R3        2.84720   0.01271   0.00090  -0.00120  -0.00030   2.84689
    R4        2.90781  -0.01124  -0.00008  -0.00789  -0.00797   2.89983
    R5        2.84187   0.05922  -0.00120   0.07145   0.07138   2.91325
    R6        6.51911   0.00020   0.00070  -0.13013  -0.13143   6.38768
    R7        4.48571  -0.01270   0.00085  -0.11640  -0.11337   4.37235
    A1        1.87254   0.00525  -0.00027   0.03567   0.03540   1.90794
    A2        1.81987   0.01510   0.00003   0.04903   0.04730   1.86718
    A3        1.88702  -0.00544  -0.00027  -0.02028  -0.02124   1.86578
    A4        1.66429   0.03602   0.00133   0.09393   0.09433   1.75861
    A5        1.75877   0.00195  -0.00006  -0.00223  -0.00276   1.75601
    A6        2.00731  -0.00431  -0.00083   0.02022   0.01902   2.02633
    A7        2.02085  -0.01338   0.00005  -0.04089  -0.04170   1.97914
    A8        2.50191   0.00132   0.00029  -0.00285  -0.00431   2.49759
    A9        2.01221  -0.01466  -0.00014  -0.06877  -0.07121   1.94100
   A10        1.41705  -0.01671   0.00068  -0.07099  -0.06844   1.34861
    D1        0.90033  -0.00471  -0.00047  -0.00139  -0.00348   0.89685
    D2       -1.24355  -0.00523   0.00057  -0.04179  -0.04123  -1.28478
    D3        2.96573  -0.00299   0.00020  -0.00089   0.00333   2.96906
    D4       -2.71239   0.01281  -0.00009   0.03763   0.03515  -2.67724
         Item               Value     Threshold  Converged?
 Maximum Force            0.059218     0.000450     NO 
 RMS     Force            0.020626     0.000300     NO 
 Maximum Displacement     0.226926     0.001800     NO 
 RMS     Displacement     0.084842     0.001200     NO 
 Predicted change in Energy=-9.690700D-03
 GradGradGradGradGradGradGradGradGradGradGradGradGradGradGradGradGradGrad

                          Input orientation:                          
 ---------------------------------------------------------------------
 Center     Atomic      Atomic             Coordinates (Angstroms)
 Number     Number       Type             X           Y           Z
 ---------------------------------------------------------------------
      1          8           0        7.474274    8.506144    3.810801
      2         15           0        6.960653    7.825149    5.284079
      3          8           0        8.101255    6.989406    5.803828
      4          8           0        5.651630    7.077389    4.997576
      5          8           0        6.705483    9.097739    6.115953
      6         38           0        4.605071   10.062919    6.216533
      7          1           0        7.820233    7.804823    3.236350
 ---------------------------------------------------------------------
                    Distance matrix (angstroms):
                    1          2          3          4          5
     1  O    0.000000
     2  P    1.702383   0.000000
     3  O    2.581813   1.506511   0.000000
     4  O    2.602269   1.534526   2.580396   0.000000
[...]
   XX=            -34.8553   YY=            -54.0943   ZZ=            -60.8038
   XY=             -8.8641   XZ=             -1.9176   YZ=              0.1997
 Traceless Quadrupole moment (field-independent basis, Debye-Ang):
   XX=             15.0625   YY=             -4.1765   ZZ=            -10.8860
   XY=             -8.8641   XZ=             -1.9176   YZ=              0.1997
 Octapole moment (field-independent basis, Debye-Ang**2):
  XXX=            160.2979  YYY=              5.2357  ZZZ=             -1.1036  XYY=             40.7983
  XXY=             31.2238  XXZ=              6.0106  XZZ=             34.1105  YZZ=              2.0288
  YYZ=              4.5454  XYZ=             -5.1242
 Hexadecapole moment (field-independent basis, Debye-Ang**3):
 XXXX=           -731.2210 YYYY=           -187.1482 ZZZZ=           -199.8124 XXXY=            -98.1994
 XXXZ=            -16.2849 YYYX=            -19.3574 YYYZ=              3.9340 ZZZX=              2.5469
 ZZZY=             -3.4318 XXYY=           -167.3261 XXZZ=           -152.6617 YYZZ=            -61.7603
 XXYZ=             12.2510 YYXZ=             -7.3487 ZZXY=             -0.9696
 N-N= 3.328237162297D+02 E-N=-2.254506544102D+03  KE= 6.488873512790D+02
 PrsmSu:  requested number of processors reduced to:  22 ShMem   1 Linda.
   1 Symmetry operations used in ECPInt.
 ECPInt:  NShTT=     990 NPrTT=    4009 LenC2=     985 LenP2D=    3319.
 LDataN:  DoStor=T MaxTD1= 7 Len=  274
 Number of processors reduced to  24 by ecpmxn.
 D1PCM: PCM CHGder 1st derivatives, ID1Alg=3 FixD1E=F DoIter=F DoCFld=F I1PDM=0.
 CoulSu:  requested number of processors reduced to:  48 ShMem   1 Linda.
 CoulSu:  requested number of processors reduced to:  48 ShMem   1 Linda.
 CoulSu:  requested number of processors reduced to:  29 ShMem   1 Linda.
 CoulSu:  requested number of processors reduced to:  30 ShMem   1 Linda.
 Calling FoFJK, ICntrl=      2127 FMM=F ISym2X=0 I1Cent= 0 IOpClX= 0 NMat=1 NMatS=1 NMatT=0.
 Defaulting to unpruned grid for atomic number  38.
 Defaulting to unpruned grid for atomic number  38.
 Defaulting to unpruned grid for atomic number  38.
 Defaulting to unpruned grid for atomic number  38.
 Defaulting to unpruned grid for atomic number  38.
 Defaulting to unpruned grid for atomic number  38.
 Defaulting to unpruned grid for atomic number  38.
 Defaulting to unpruned grid for atomic number  38.
 Defaulting to unpruned grid for atomic number  38.
 Defaulting to unpruned grid for atomic number  38.
 Defaulting to unpruned grid for atomic number  38.
 Defaulting to unpruned grid for atomic number  38.
 Defaulting to unpruned grid for atomic number  38.
 Defaulting to unpruned grid for atomic number  38.
 Defaulting to unpruned grid for atomic number  38.
 Defaulting to unpruned grid for atomic number  38.
 Defaulting to unpruned grid for atomic number  38.
 Defaulting to unpruned grid for atomic number  38.
 Defaulting to unpruned grid for atomic number  38.
 Defaulting to unpruned grid for atomic number  38.
 Defaulting to unpruned grid for atomic number  38.
 Defaulting to unpruned grid for atomic number  38.
 Defaulting to unpruned grid for atomic number  38.
 Defaulting to unpruned grid for atomic number  38.
 Defaulting to unpruned grid for atomic number  38.
 Defaulting to unpruned grid for atomic number  38.
 Defaulting to unpruned grid for atomic number  38.
 Defaulting to unpruned grid for atomic number  38.
 Defaulting to unpruned grid for atomic number  38.
 Defaulting to unpruned grid for atomic number  38.
 Defaulting to unpruned grid for atomic number  38.
 Defaulting to unpruned grid for atomic number  38.
 Defaulting to unpruned grid for atomic number  38.
 Defaulting to unpruned grid for atomic number  38.
 Defaulting to unpruned grid for atomic number  38.
 Defaulting to unpruned grid for atomic number  38.
 Defaulting to unpruned grid for atomic number  38.
 Defaulting to unpruned grid for atomic number  38.
 Defaulting to unpruned grid for atomic number  38.
 Defaulting to unpruned grid for atomic number  38.
 Defaulting to unpruned grid for atomic number  38.
 Defaulting to unpruned grid for atomic number  38.
 Defaulting to unpruned grid for atomic number  38.
 Defaulting to unpruned grid for atomic number  38.
 Defaulting to unpruned grid for atomic number  38.
 Defaulting to unpruned grid for atomic number  38.
 Defaulting to unpruned grid for atomic number  38.
 Defaulting to unpruned grid for atomic number  38.
 Defaulting to unpruned grid for atomic number  38.
 ***** Axes restored to original set *****
 -------------------------------------------------------------------
 Center     Atomic                   Forces (Hartrees/Bohr)
 Number     Number              X              Y              Z
 -------------------------------------------------------------------
      1        8           0.004783487   -0.017393559    0.006518376
      2       15           0.028323089    0.050136545    0.007931854
      3        8          -0.016698016    0.009027115   -0.007355952
      4        8          -0.017570308   -0.003755996    0.009032851
      5        8           0.010046190   -0.040842992   -0.018910077
      6       38          -0.006472125   -0.006259085   -0.003058962
      7        1          -0.002412318    0.009087973    0.005841909
 -------------------------------------------------------------------
 Cartesian Forces:  Max     0.050136545 RMS     0.018133312

 GradGradGradGradGradGradGradGradGradGradGradGradGradGradGradGradGradGrad
 Berny optimization.
 Using GEDIIS/GDIIS optimizer.
 FormGI is forming the generalized inverse of G from B-inverse, IUseBI=4.
 Internal  Forces:  Max     0.043350489 RMS     0.013876638
 Search for a local minimum.
 Step number  10 out of a maximum of   10
 All quantities printed in internal units (Hartrees-Bohrs-Radians)
 Mixed Optimization -- RFO/linear search
 Update second derivatives using D2CorX and points    5    8    9   10
 DE= -2.10D-03 DEPred=-1.37D-03 R= 1.54D+00
 TightC=F SS=  1.41D+00  RLast= 1.14D-01 DXNew= 7.7235D-01 3.4267D-01
 Trust test= 1.54D+00 RLast= 1.14D-01 DXMaxT set to 4.59D-01
 ITU=  1  1  0 -1 -1  1  1  1  1  0
 Use linear search instead of GDIIS.
     Eigenvalues ---    0.02099   0.03872   0.06047   0.13791   0.14610
     Eigenvalues ---    0.18036   0.23471   0.26513   0.27857   0.38236
     Eigenvalues ---    0.46761   0.47784   0.55981   0.84309   2.80339
 RFO step:  Lambda=-6.37657738D-03 EMin= 2.09929509D-02
 Quartic linear search produced a step of  0.51769.
 Iteration  1 RMS(Cart)=  0.11908991 RMS(Int)=  0.02405405
 Iteration  2 RMS(Cart)=  0.02330947 RMS(Int)=  0.00335911
 Iteration  3 RMS(Cart)=  0.00020578 RMS(Int)=  0.00335324
 Iteration  4 RMS(Cart)=  0.00000143 RMS(Int)=  0.00335324
 Iteration  5 RMS(Cart)=  0.00000001 RMS(Int)=  0.00335324
 Variable       Old X    -DE/DX   Delta X   Delta X   Delta X     New X
                                 (Linear)    (Quad)   (Total)
    R1        3.20953  -0.01311  -0.01121  -0.08077  -0.09198   3.11755
    R2        1.84723  -0.01109  -0.00432  -0.04012  -0.04444   1.80279
    R3        2.86791  -0.01971   0.00101  -0.01145  -0.01044   2.85747
    R4        2.88511   0.01615   0.00134   0.01647   0.01781   2.90292
    R5        3.08984  -0.04335   0.00799   0.05260   0.06060   3.15044
    R6        5.76712  -0.00918   0.03317  -0.31908  -0.28750   5.47962
    R7        4.35962   0.01158   0.02843   0.07206   0.10242   4.46204
    A1        1.88394   0.00140  -0.00532  -0.02895  -0.03427   1.84966
    A2        1.90609  -0.00095   0.00266  -0.02411  -0.02796   1.87813
    A3        1.80399   0.02080   0.00837   0.00219   0.01212   1.81611
    A4        1.72552   0.01008   0.00498  -0.00117   0.00600   1.73152
    A5        1.85064   0.00418   0.00374   0.07709   0.07237   1.92302
    A6        2.10973  -0.01227  -0.00257  -0.03032  -0.03086   2.07887
    A7        2.01499  -0.00078   0.00933   0.03897   0.05067   2.06565
    A8        2.50208  -0.00038  -0.00155  -0.01031  -0.02016   2.48192
    A9        1.85373  -0.00952  -0.02014   0.01497  -0.00766   1.84607
   A10        1.01550  -0.01213  -0.02045  -0.10492  -0.12083   0.89467
    D1        0.83007  -0.00422  -0.00908  -0.08094  -0.08979   0.74028
    D2       -1.43701  -0.00228  -0.01287  -0.03097  -0.04405  -1.48106
    D3        2.94177  -0.00044   0.00483  -0.04697  -0.04087   2.90090
    D4       -2.48935   0.00589   0.00644   0.06994   0.07509  -2.41426
         Item               Value     Threshold  Converged?
 Maximum Force            0.043350     0.000450     NO 
 RMS     Force            0.013877     0.000300     NO 
 Maximum Displacement     0.387451     0.001800     NO 
 RMS     Displacement     0.131744     0.001200     NO 
 Predicted change in Energy=-3.835378D-03
 Optimization stopped.
    -- Number of steps exceeded,  NStep=  10
    -- Flag reset to prevent archiving.
                           ----------------------------
                           ! Non-Optimized Parameters !
                           ! (Angstroms and Degrees)  !
 --------------------------                            --------------------------
 ! Name  Definition              Value          Derivative Info.                !
 --------------------------------------------------------------------------------
 ! R1    R(1,2)                  1.6497         -DE/DX =   -0.0131              !
 ! R2    R(1,7)                  0.954          -DE/DX =   -0.0111              !
 ! R3    R(2,3)                  1.5121         -DE/DX =   -0.0197              !
 ! R4    R(2,4)                  1.5362         -DE/DX =    0.0162              !
 ! R5    R(2,5)                  1.6671         -DE/DX =   -0.0434              !
 ! R6    R(2,6)                  2.8997         -DE/DX =   -0.0092              !
 ! R7    R(5,6)                  2.3612         -DE/DX =    0.0116              !
 ! A1    A(2,1,7)              105.9778         -DE/DX =    0.0014              !
 ! A2    A(1,2,3)              107.6089         -DE/DX =   -0.001               !
 ! A3    A(1,2,4)              104.0556         -DE/DX =    0.0208              !
 ! A4    A(1,2,5)               99.2089         -DE/DX =    0.0101              !
 ! A5    A(1,2,6)              110.1807         -DE/DX =    0.0042              !
 ! A6    A(3,2,4)              119.1102         -DE/DX =   -0.0123              !
 ! A7    A(3,2,5)              118.3532         -DE/DX =   -0.0008              !
 ! A8    A(3,2,6)              142.2035         -DE/DX =   -0.0004              !
 ! A9    A(4,2,5)              105.772          -DE/DX =   -0.0095              !
 ! A10   A(4,2,6)               51.2607         -DE/DX =   -0.0121              !
 ! D1    D(7,1,2,3)             42.415          -DE/DX =   -0.0042              !
 ! D2    D(7,1,2,4)            -84.8586         -DE/DX =   -0.0023              !
 ! D3    D(7,1,2,5)            166.2093         -DE/DX =   -0.0004              !
 ! D4    D(7,1,2,6)           -138.327          -DE/DX =    0.0059              !
 --------------------------------------------------------------------------------
 GradGradGradGradGradGradGradGradGradGradGradGradGradGradGradGradGradGrad

                          Input orientation:                          
 ---------------------------------------------------------------------
 Center     Atomic      Atomic             Coordinates (Angstroms)
 Number     Number       Type             X           Y           Z
 ---------------------------------------------------------------------
      1          8           0        7.497063    8.479864    3.796822
      2         15           0        6.985501    7.887704    5.304222
      3          8           0        8.012517    6.900523    5.827602
      4          8           0        5.544891    7.454979    5.042851
      5          8           0        6.896499    9.304988    6.114685
      6         38           0        4.610960    9.618713    6.128129
      7          1           0        7.771169    7.716798    3.250810
 ---------------------------------------------------------------------
                    Distance matrix (angstroms):
                    1          2          3          4          5
     1  O    0.000000
     2  P    1.698411   0.000000
     3  O    2.623752   1.517635   0.000000
     4  O    2.532577   1.526736   2.648100   0.000000
     5  O    2.532587   1.635074   2.666339   2.529468   0.000000
     6  Sr   3.880923   3.051829   4.364570   2.594572   2.307010
     7  H    0.977514   2.205218   2.713745   2.869891   3.389569
                    6          7
     6  Sr   0.000000
     7  H    4.677946   0.000000
 Stoichiometry    HO4PSr
 Framework group  C1[X(HO4PSr)]
 Deg. of freedom    15
 Full point group                 C1      NOp   1
 Largest Abelian subgroup         C1      NOp   1
 Largest concise Abelian subgroup C1      NOp   1
                         Standard orientation:                         
 ---------------------------------------------------------------------
 Center     Atomic      Atomic             Coordinates (Angstroms)
 Number     Number       Type             X           Y           Z
 ---------------------------------------------------------------------
      1          8           0       -1.898008    1.414497   -0.343966
      2         15           0       -1.347410   -0.142943    0.050776
      3          8           0       -2.520591   -1.105591    0.037638
      4          8           0       -0.533032    0.082506    1.322343
      5          8           0       -0.262922   -0.340413   -1.156848
      6         38           0        1.700546    0.003632    0.004498
      7          1           0       -2.693174    1.598137    0.194105
 ---------------------------------------------------------------------
 Rotational constants (GHZ):           4.6766447           0.9507766           0.9414132

 **********************************************************************

            Population analysis using the SCF density.

 **********************************************************************

 Orbital symmetries:
       Occupied  (A) (A) (A) (A) (A) (A) (A) (A) (A) (A) (A) (A)
                 (A) (A) (A) (A) (A) (A) (A) (A) (A) (A) (A) (A)
                 (A) (A) (A) (A) (A)
       Virtual   (A) (A) (A) (A) (A) (A) (A) (A) (A) (A) (A) (A)
                 (A) (A) (A) (A) (A) (A) (A) (A) (A) (A) (A) (A)
                 (A) (A) (A) (A) (A) (A) (A) (A) (A) (A) (A) (A)
                 (A) (A) (A) (A) (A) (A) (A) (A) (A) (A) (A) (A)
                 (A) (A) (A) (A) (A) (A) (A) (A) (A) (A) (A) (A)
                 (A) (A) (A) (A) (A) (A) (A) (A) (A) (A) (A) (A)
                 (A)
 The electronic state is 1-A.
 Alpha  occ. eigenvalues --  -78.11666 -19.60401 -19.55421 -19.54982 -19.53863
 Alpha  occ. eigenvalues --   -6.90977  -5.03130  -5.02982  -5.02917  -1.64083
 Alpha  occ. eigenvalues --   -1.10727  -1.03731  -0.99189  -0.98278  -0.90462
 Alpha  occ. eigenvalues --   -0.90031  -0.88669  -0.59944  -0.50876  -0.46811
 Alpha  occ. eigenvalues --   -0.45290  -0.42471  -0.38387  -0.35928  -0.34898
 Alpha  occ. eigenvalues --   -0.34101  -0.31141  -0.30534  -0.29436
 Alpha virt. eigenvalues --   -0.00374   0.03860   0.04023   0.04820   0.07157
 Alpha virt. eigenvalues --    0.07554   0.08956   0.09094   0.10125   0.14010
 Alpha virt. eigenvalues --    0.14862   0.15883   0.16214   0.17189   0.18432
 Alpha virt. eigenvalues --    0.20563   0.25117   0.25765   0.28482   0.30750
 Alpha virt. eigenvalues --    0.33614   0.35276   0.42113   0.50236   0.63481
 Alpha virt. eigenvalues --    0.66269   0.67940   0.72406   0.75528   0.76813
 Alpha virt. eigenvalues --    0.94341   0.98499   1.01482   1.03571   1.10244
 Alpha virt. eigenvalues --    1.12086   1.15970   1.17672   1.18165   1.23273
 Alpha virt. eigenvalues --    1.26657   1.30978   1.31500   1.35224   1.40078
 Alpha virt. eigenvalues --    1.42780   1.49755   1.50492   1.57592   1.70311
 Alpha virt. eigenvalues --    1.81191   2.28010   2.71194   2.72890   2.75999
 Alpha virt. eigenvalues --    2.77248   2.77599   2.78066   2.78238   2.80212
 Alpha virt. eigenvalues --    2.83175   2.91866   2.96560   2.99768   3.03290
 Alpha virt. eigenvalues --    3.07653   3.08995   3.14576   3.28336   3.43170
 Alpha virt. eigenvalues --    3.47626   3.75451  30.21925
          Condensed to atoms (all electrons):
               1          2          3          4          5          6
     1  O    8.025590   0.254843  -0.034851  -0.040038  -0.031758   0.039193
     2  P    0.254843  12.379789   0.549758   0.399489   0.325899  -0.041434
     3  O   -0.034851   0.549758   8.226034  -0.028164  -0.028233   0.014780
     4  O   -0.040038   0.399489  -0.028164   8.266790  -0.048791   0.161252
     5  O   -0.031758   0.325899  -0.028233  -0.048791   8.368650   0.196506
     6  Sr   0.039193  -0.041434   0.014780   0.161252   0.196506   8.259039
     7  H    0.301030  -0.000607   0.004323   0.000996   0.002123  -0.009787
               7
     1  O    0.301030
     2  P   -0.000607
     3  O    0.004323
     4  O    0.000996
     5  O    0.002123
     6  Sr  -0.009787
     7  H    0.501046
 Mulliken charges:
               1
     1  O   -0.514010
     2  P    1.132263
     3  O   -0.703648
     4  O   -0.711534
     5  O   -0.784397
     6  Sr   1.380451
     7  H    0.200875
 Sum of Mulliken charges =  -0.00000
 Mulliken charges with hydrogens summed into heavy atoms:
               1
     1  O   -0.313135
     2  P    1.132263
     3  O   -0.703648
     4  O   -0.711534
     5  O   -0.784397
     6  Sr   1.380451
 Electronic spatial extent (au):  <R**2>=            829.9566
 Charge=              0.0000 electrons
 Dipole moment (field-independent basis, Debye):
    X=             21.0158    Y=              2.9416    Z=              1.3304  Tot=             21.2623
 Quadrupole moment (field-independent basis, Debye-Ang):
   XX=            -34.8553   YY=            -54.0943   ZZ=            -60.8038
   XY=             -8.8641   XZ=             -1.9176   YZ=              0.1997
 Traceless Quadrupole moment (field-independent basis, Debye-Ang):
   XX=             15.0625   YY=             -4.1765   ZZ=            -10.8860
   XY=             -8.8641   XZ=             -1.9176   YZ=              0.1997
 Octapole moment (field-independent basis, Debye-Ang**2):
  XXX=            160.2979  YYY=              5.2357  ZZZ=             -1.1036  XYY=             40.7983
  XXY=             31.2238  XXZ=              6.0106  XZZ=             34.1105  YZZ=              2.0288
  YYZ=              4.5454  XYZ=             -5.1242
 Hexadecapole moment (field-independent basis, Debye-Ang**3):
 XXXX=           -731.2210 YYYY=           -187.1482 ZZZZ=           -199.8124 XXXY=            -98.1994
 XXXZ=            -16.2849 YYYX=            -19.3574 YYYZ=              3.9340 ZZZX=              2.5469
 ZZZY=             -3.4318 XXYY=           -167.3261 XXZZ=           -152.6617 YYZZ=            -61.7603
 XXYZ=             12.2510 YYXZ=             -7.3487 ZZXY=             -0.9696
 N-N= 3.328237162297D+02 E-N=-2.254506544102D+03  KE= 6.488873512790D+02


 "MATHEMATICS IS THE ART OF GIVING THE SAME NAME
 TO DIFFERENT THINGS."
                    - H. POINCARE
 Error termination request processed by link 9999.
 Error termination via Lnk1e in /home/pub/g16/l9999.exe at Thu Jun  8 23:21:07 2023.
 Job cpu time:       0 days  0 hours 48 minutes 31.7 seconds.
 Elapsed time:       0 days  0 hours  1 minutes  5.5 seconds.
 File lengths (MBytes):  RWF=     30 Int=      0 D2E=      0 Chk=      3 Scr=      1
